n -t 0 -s 0 -S DLABEL -l "src-1" -L ""
n -t 0 -s 1 -S DLABEL -l "src-2" -L ""
n -t 0 -s 3 -S DLABEL -l "dest-1" -L ""
n -t 0 -s 4 -S DLABEL -l "dest-2" -L ""
V -t * -v 1.0a5 -a 0
A -t * -n 1 -p 0 -o 0x7fffffff -c 30 -a 1
A -t * -h 1 -m 1073741823 -s 0
n -t * -a 4 -s 4 -S UP -v circle -c blue -i blue
n -t * -a 0 -s 0 -S UP -v circle -c magenta -i magenta
n -t * -a 1 -s 1 -S UP -v circle -c blue -i blue
n -t * -a 2 -s 2 -S UP -v circle -c black -i black
n -t * -a 3 -s 3 -S UP -v circle -c magenta -i magenta
l -t * -s 0 -d 3 -S UP -r 1000000 -D 0.001 -c black
l -t * -s 1 -d 4 -S UP -r 1000000 -D 0.001 -c black
X -t * -n 5 -r 100Mb -D 100ms -o left
L -t * -s 5 -d 0 -o up
L -t * -s 5 -d 1 -o down
L -t * -s 5 -d 2 -o up
L -t * -s 5 -d 3 -o down
L -t * -s 5 -d 4 -o up
+ -t 0.5 -s 0 -d 3 -p tcp -e 40 -c 2 -i 0 -a 2 -x {0.0 3.0 0 ------- null}
- -t 0.5 -s 0 -d 3 -p tcp -e 40 -c 2 -i 0 -a 2 -x {0.0 3.0 0 ------- null}
h -t 0.5 -s 0 -d 3 -p tcp -e 40 -c 2 -i 0 -a 2 -x {0.0 3.0 -1 ------- null}
r -t 0.50132 -s 0 -d 3 -p tcp -e 40 -c 2 -i 0 -a 2 -x {0.0 3.0 0 ------- null}
+ -t 0.50132 -s 3 -d 0 -p ack -e 40 -c 2 -i 1 -a 2 -x {3.0 0.0 0 ------- null}
- -t 0.50132 -s 3 -d 0 -p ack -e 40 -c 2 -i 1 -a 2 -x {3.0 0.0 0 ------- null}
h -t 0.50132 -s 3 -d 0 -p ack -e 40 -c 2 -i 1 -a 2 -x {3.0 0.0 -1 ------- null}
r -t 0.50264 -s 3 -d 0 -p ack -e 40 -c 2 -i 1 -a 2 -x {3.0 0.0 0 ------- null}
+ -t 0.50264 -s 0 -d 3 -p tcp -e 1040 -c 2 -i 2 -a 2 -x {0.0 3.0 1 ------- null}
- -t 0.50264 -s 0 -d 3 -p tcp -e 1040 -c 2 -i 2 -a 2 -x {0.0 3.0 1 ------- null}
h -t 0.50264 -s 0 -d 3 -p tcp -e 1040 -c 2 -i 2 -a 2 -x {0.0 3.0 -1 ------- null}
+ -t 0.50264 -s 0 -d 3 -p tcp -e 1040 -c 2 -i 3 -a 2 -x {0.0 3.0 2 ------- null}
- -t 0.51096 -s 0 -d 3 -p tcp -e 1040 -c 2 -i 3 -a 2 -x {0.0 3.0 2 ------- null}
h -t 0.51096 -s 0 -d 3 -p tcp -e 1040 -c 2 -i 3 -a 2 -x {0.0 3.0 -1 ------- null}
r -t 0.51196 -s 0 -d 3 -p tcp -e 1040 -c 2 -i 2 -a 2 -x {0.0 3.0 1 ------- null}
+ -t 0.51196 -s 3 -d 0 -p ack -e 40 -c 2 -i 4 -a 2 -x {3.0 0.0 1 ------- null}
- -t 0.51196 -s 3 -d 0 -p ack -e 40 -c 2 -i 4 -a 2 -x {3.0 0.0 1 ------- null}
h -t 0.51196 -s 3 -d 0 -p ack -e 40 -c 2 -i 4 -a 2 -x {3.0 0.0 -1 ------- null}
r -t 0.51328 -s 3 -d 0 -p ack -e 40 -c 2 -i 4 -a 2 -x {3.0 0.0 1 ------- null}
+ -t 0.51328 -s 0 -d 3 -p tcp -e 1040 -c 2 -i 5 -a 2 -x {0.0 3.0 3 ------- null}
+ -t 0.51328 -s 0 -d 3 -p tcp -e 1040 -c 2 -i 6 -a 2 -x {0.0 3.0 4 ------- null}
- -t 0.51928 -s 0 -d 3 -p tcp -e 1040 -c 2 -i 5 -a 2 -x {0.0 3.0 3 ------- null}
h -t 0.51928 -s 0 -d 3 -p tcp -e 1040 -c 2 -i 5 -a 2 -x {0.0 3.0 -1 ------- null}
r -t 0.52028 -s 0 -d 3 -p tcp -e 1040 -c 2 -i 3 -a 2 -x {0.0 3.0 2 ------- null}
+ -t 0.52028 -s 3 -d 0 -p ack -e 40 -c 2 -i 7 -a 2 -x {3.0 0.0 2 ------- null}
- -t 0.52028 -s 3 -d 0 -p ack -e 40 -c 2 -i 7 -a 2 -x {3.0 0.0 2 ------- null}
h -t 0.52028 -s 3 -d 0 -p ack -e 40 -c 2 -i 7 -a 2 -x {3.0 0.0 -1 ------- null}
r -t 0.5216 -s 3 -d 0 -p ack -e 40 -c 2 -i 7 -a 2 -x {3.0 0.0 2 ------- null}
+ -t 0.5216 -s 0 -d 3 -p tcp -e 1040 -c 2 -i 8 -a 2 -x {0.0 3.0 5 ------- null}
+ -t 0.5216 -s 0 -d 3 -p tcp -e 1040 -c 2 -i 9 -a 2 -x {0.0 3.0 6 ------- null}
- -t 0.5276 -s 0 -d 3 -p tcp -e 1040 -c 2 -i 6 -a 2 -x {0.0 3.0 4 ------- null}
h -t 0.5276 -s 0 -d 3 -p tcp -e 1040 -c 2 -i 6 -a 2 -x {0.0 3.0 -1 ------- null}
r -t 0.5286 -s 0 -d 3 -p tcp -e 1040 -c 2 -i 5 -a 2 -x {0.0 3.0 3 ------- null}
+ -t 0.5286 -s 3 -d 0 -p ack -e 40 -c 2 -i 10 -a 2 -x {3.0 0.0 3 ------- null}
- -t 0.5286 -s 3 -d 0 -p ack -e 40 -c 2 -i 10 -a 2 -x {3.0 0.0 3 ------- null}
h -t 0.5286 -s 3 -d 0 -p ack -e 40 -c 2 -i 10 -a 2 -x {3.0 0.0 -1 ------- null}
r -t 0.52992 -s 3 -d 0 -p ack -e 40 -c 2 -i 10 -a 2 -x {3.0 0.0 3 ------- null}
+ -t 0.52992 -s 0 -d 3 -p tcp -e 1040 -c 2 -i 11 -a 2 -x {0.0 3.0 7 ------- null}
+ -t 0.52992 -s 0 -d 3 -p tcp -e 1040 -c 2 -i 12 -a 2 -x {0.0 3.0 8 ------- null}
- -t 0.53592 -s 0 -d 3 -p tcp -e 1040 -c 2 -i 8 -a 2 -x {0.0 3.0 5 ------- null}
h -t 0.53592 -s 0 -d 3 -p tcp -e 1040 -c 2 -i 8 -a 2 -x {0.0 3.0 -1 ------- null}
r -t 0.53692 -s 0 -d 3 -p tcp -e 1040 -c 2 -i 6 -a 2 -x {0.0 3.0 4 ------- null}
+ -t 0.53692 -s 3 -d 0 -p ack -e 40 -c 2 -i 13 -a 2 -x {3.0 0.0 4 ------- null}
- -t 0.53692 -s 3 -d 0 -p ack -e 40 -c 2 -i 13 -a 2 -x {3.0 0.0 4 ------- null}
h -t 0.53692 -s 3 -d 0 -p ack -e 40 -c 2 -i 13 -a 2 -x {3.0 0.0 -1 ------- null}
r -t 0.53824 -s 3 -d 0 -p ack -e 40 -c 2 -i 13 -a 2 -x {3.0 0.0 4 ------- null}
+ -t 0.53824 -s 0 -d 3 -p tcp -e 1040 -c 2 -i 14 -a 2 -x {0.0 3.0 9 ------- null}
+ -t 0.53824 -s 0 -d 3 -p tcp -e 1040 -c 2 -i 15 -a 2 -x {0.0 3.0 10 ------- null}
- -t 0.54424 -s 0 -d 3 -p tcp -e 1040 -c 2 -i 9 -a 2 -x {0.0 3.0 6 ------- null}
h -t 0.54424 -s 0 -d 3 -p tcp -e 1040 -c 2 -i 9 -a 2 -x {0.0 3.0 -1 ------- null}
r -t 0.54524 -s 0 -d 3 -p tcp -e 1040 -c 2 -i 8 -a 2 -x {0.0 3.0 5 ------- null}
+ -t 0.54524 -s 3 -d 0 -p ack -e 40 -c 2 -i 16 -a 2 -x {3.0 0.0 5 ------- null}
- -t 0.54524 -s 3 -d 0 -p ack -e 40 -c 2 -i 16 -a 2 -x {3.0 0.0 5 ------- null}
h -t 0.54524 -s 3 -d 0 -p ack -e 40 -c 2 -i 16 -a 2 -x {3.0 0.0 -1 ------- null}
r -t 0.54656 -s 3 -d 0 -p ack -e 40 -c 2 -i 16 -a 2 -x {3.0 0.0 5 ------- null}
+ -t 0.54656 -s 0 -d 3 -p tcp -e 1040 -c 2 -i 17 -a 2 -x {0.0 3.0 11 ------- null}
+ -t 0.54656 -s 0 -d 3 -p tcp -e 1040 -c 2 -i 18 -a 2 -x {0.0 3.0 12 ------- null}
- -t 0.55256 -s 0 -d 3 -p tcp -e 1040 -c 2 -i 11 -a 2 -x {0.0 3.0 7 ------- null}
h -t 0.55256 -s 0 -d 3 -p tcp -e 1040 -c 2 -i 11 -a 2 -x {0.0 3.0 -1 ------- null}
r -t 0.55356 -s 0 -d 3 -p tcp -e 1040 -c 2 -i 9 -a 2 -x {0.0 3.0 6 ------- null}
+ -t 0.55356 -s 3 -d 0 -p ack -e 40 -c 2 -i 19 -a 2 -x {3.0 0.0 6 ------- null}
- -t 0.55356 -s 3 -d 0 -p ack -e 40 -c 2 -i 19 -a 2 -x {3.0 0.0 6 ------- null}
h -t 0.55356 -s 3 -d 0 -p ack -e 40 -c 2 -i 19 -a 2 -x {3.0 0.0 -1 ------- null}
r -t 0.55488 -s 3 -d 0 -p ack -e 40 -c 2 -i 19 -a 2 -x {3.0 0.0 6 ------- null}
+ -t 0.55488 -s 0 -d 3 -p tcp -e 1040 -c 2 -i 20 -a 2 -x {0.0 3.0 13 ------- null}
+ -t 0.55488 -s 0 -d 3 -p tcp -e 1040 -c 2 -i 21 -a 2 -x {0.0 3.0 14 ------- null}
- -t 0.56088 -s 0 -d 3 -p tcp -e 1040 -c 2 -i 12 -a 2 -x {0.0 3.0 8 ------- null}
h -t 0.56088 -s 0 -d 3 -p tcp -e 1040 -c 2 -i 12 -a 2 -x {0.0 3.0 -1 ------- null}
r -t 0.56188 -s 0 -d 3 -p tcp -e 1040 -c 2 -i 11 -a 2 -x {0.0 3.0 7 ------- null}
+ -t 0.56188 -s 3 -d 0 -p ack -e 40 -c 2 -i 22 -a 2 -x {3.0 0.0 7 ------- null}
- -t 0.56188 -s 3 -d 0 -p ack -e 40 -c 2 -i 22 -a 2 -x {3.0 0.0 7 ------- null}
h -t 0.56188 -s 3 -d 0 -p ack -e 40 -c 2 -i 22 -a 2 -x {3.0 0.0 -1 ------- null}
r -t 0.5632 -s 3 -d 0 -p ack -e 40 -c 2 -i 22 -a 2 -x {3.0 0.0 7 ------- null}
+ -t 0.5632 -s 0 -d 3 -p tcp -e 1040 -c 2 -i 23 -a 2 -x {0.0 3.0 15 ------- null}
+ -t 0.5632 -s 0 -d 3 -p tcp -e 1040 -c 2 -i 24 -a 2 -x {0.0 3.0 16 ------- null}
- -t 0.5692 -s 0 -d 3 -p tcp -e 1040 -c 2 -i 14 -a 2 -x {0.0 3.0 9 ------- null}
h -t 0.5692 -s 0 -d 3 -p tcp -e 1040 -c 2 -i 14 -a 2 -x {0.0 3.0 -1 ------- null}
r -t 0.5702 -s 0 -d 3 -p tcp -e 1040 -c 2 -i 12 -a 2 -x {0.0 3.0 8 ------- null}
+ -t 0.5702 -s 3 -d 0 -p ack -e 40 -c 2 -i 25 -a 2 -x {3.0 0.0 8 ------- null}
- -t 0.5702 -s 3 -d 0 -p ack -e 40 -c 2 -i 25 -a 2 -x {3.0 0.0 8 ------- null}
h -t 0.5702 -s 3 -d 0 -p ack -e 40 -c 2 -i 25 -a 2 -x {3.0 0.0 -1 ------- null}
r -t 0.57152 -s 3 -d 0 -p ack -e 40 -c 2 -i 25 -a 2 -x {3.0 0.0 8 ------- null}
+ -t 0.57152 -s 0 -d 3 -p tcp -e 1040 -c 2 -i 26 -a 2 -x {0.0 3.0 17 ------- null}
+ -t 0.57152 -s 0 -d 3 -p tcp -e 1040 -c 2 -i 27 -a 2 -x {0.0 3.0 18 ------- null}
- -t 0.57752 -s 0 -d 3 -p tcp -e 1040 -c 2 -i 15 -a 2 -x {0.0 3.0 10 ------- null}
h -t 0.57752 -s 0 -d 3 -p tcp -e 1040 -c 2 -i 15 -a 2 -x {0.0 3.0 -1 ------- null}
r -t 0.57852 -s 0 -d 3 -p tcp -e 1040 -c 2 -i 14 -a 2 -x {0.0 3.0 9 ------- null}
+ -t 0.57852 -s 3 -d 0 -p ack -e 40 -c 2 -i 28 -a 2 -x {3.0 0.0 9 ------- null}
- -t 0.57852 -s 3 -d 0 -p ack -e 40 -c 2 -i 28 -a 2 -x {3.0 0.0 9 ------- null}
h -t 0.57852 -s 3 -d 0 -p ack -e 40 -c 2 -i 28 -a 2 -x {3.0 0.0 -1 ------- null}
r -t 0.57984 -s 3 -d 0 -p ack -e 40 -c 2 -i 28 -a 2 -x {3.0 0.0 9 ------- null}
+ -t 0.57984 -s 0 -d 3 -p tcp -e 1040 -c 2 -i 29 -a 2 -x {0.0 3.0 19 ------- null}
+ -t 0.57984 -s 0 -d 3 -p tcp -e 1040 -c 2 -i 30 -a 2 -x {0.0 3.0 20 ------- null}
- -t 0.58584 -s 0 -d 3 -p tcp -e 1040 -c 2 -i 17 -a 2 -x {0.0 3.0 11 ------- null}
h -t 0.58584 -s 0 -d 3 -p tcp -e 1040 -c 2 -i 17 -a 2 -x {0.0 3.0 -1 ------- null}
r -t 0.58684 -s 0 -d 3 -p tcp -e 1040 -c 2 -i 15 -a 2 -x {0.0 3.0 10 ------- null}
+ -t 0.58684 -s 3 -d 0 -p ack -e 40 -c 2 -i 31 -a 2 -x {3.0 0.0 10 ------- null}
- -t 0.58684 -s 3 -d 0 -p ack -e 40 -c 2 -i 31 -a 2 -x {3.0 0.0 10 ------- null}
h -t 0.58684 -s 3 -d 0 -p ack -e 40 -c 2 -i 31 -a 2 -x {3.0 0.0 -1 ------- null}
r -t 0.58816 -s 3 -d 0 -p ack -e 40 -c 2 -i 31 -a 2 -x {3.0 0.0 10 ------- null}
+ -t 0.58816 -s 0 -d 3 -p tcp -e 1040 -c 2 -i 32 -a 2 -x {0.0 3.0 21 ------- null}
+ -t 0.58816 -s 0 -d 3 -p tcp -e 1040 -c 2 -i 33 -a 2 -x {0.0 3.0 22 ------- null}
- -t 0.59416 -s 0 -d 3 -p tcp -e 1040 -c 2 -i 18 -a 2 -x {0.0 3.0 12 ------- null}
h -t 0.59416 -s 0 -d 3 -p tcp -e 1040 -c 2 -i 18 -a 2 -x {0.0 3.0 -1 ------- null}
r -t 0.59516 -s 0 -d 3 -p tcp -e 1040 -c 2 -i 17 -a 2 -x {0.0 3.0 11 ------- null}
+ -t 0.59516 -s 3 -d 0 -p ack -e 40 -c 2 -i 34 -a 2 -x {3.0 0.0 11 ------- null}
- -t 0.59516 -s 3 -d 0 -p ack -e 40 -c 2 -i 34 -a 2 -x {3.0 0.0 11 ------- null}
h -t 0.59516 -s 3 -d 0 -p ack -e 40 -c 2 -i 34 -a 2 -x {3.0 0.0 -1 ------- null}
r -t 0.59648 -s 3 -d 0 -p ack -e 40 -c 2 -i 34 -a 2 -x {3.0 0.0 11 ------- null}
+ -t 0.59648 -s 0 -d 3 -p tcp -e 1040 -c 2 -i 35 -a 2 -x {0.0 3.0 23 ------- null}
+ -t 0.59648 -s 0 -d 3 -p tcp -e 1040 -c 2 -i 36 -a 2 -x {0.0 3.0 24 ------- null}
- -t 0.60248 -s 0 -d 3 -p tcp -e 1040 -c 2 -i 20 -a 2 -x {0.0 3.0 13 ------- null}
h -t 0.60248 -s 0 -d 3 -p tcp -e 1040 -c 2 -i 20 -a 2 -x {0.0 3.0 -1 ------- null}
r -t 0.60348 -s 0 -d 3 -p tcp -e 1040 -c 2 -i 18 -a 2 -x {0.0 3.0 12 ------- null}
+ -t 0.60348 -s 3 -d 0 -p ack -e 40 -c 2 -i 37 -a 2 -x {3.0 0.0 12 ------- null}
- -t 0.60348 -s 3 -d 0 -p ack -e 40 -c 2 -i 37 -a 2 -x {3.0 0.0 12 ------- null}
h -t 0.60348 -s 3 -d 0 -p ack -e 40 -c 2 -i 37 -a 2 -x {3.0 0.0 -1 ------- null}
r -t 0.6048 -s 3 -d 0 -p ack -e 40 -c 2 -i 37 -a 2 -x {3.0 0.0 12 ------- null}
+ -t 0.6048 -s 0 -d 3 -p tcp -e 1040 -c 2 -i 38 -a 2 -x {0.0 3.0 25 ------- null}
+ -t 0.6048 -s 0 -d 3 -p tcp -e 1040 -c 2 -i 39 -a 2 -x {0.0 3.0 26 ------- null}
- -t 0.6108 -s 0 -d 3 -p tcp -e 1040 -c 2 -i 21 -a 2 -x {0.0 3.0 14 ------- null}
h -t 0.6108 -s 0 -d 3 -p tcp -e 1040 -c 2 -i 21 -a 2 -x {0.0 3.0 -1 ------- null}
r -t 0.6118 -s 0 -d 3 -p tcp -e 1040 -c 2 -i 20 -a 2 -x {0.0 3.0 13 ------- null}
+ -t 0.6118 -s 3 -d 0 -p ack -e 40 -c 2 -i 40 -a 2 -x {3.0 0.0 13 ------- null}
- -t 0.6118 -s 3 -d 0 -p ack -e 40 -c 2 -i 40 -a 2 -x {3.0 0.0 13 ------- null}
h -t 0.6118 -s 3 -d 0 -p ack -e 40 -c 2 -i 40 -a 2 -x {3.0 0.0 -1 ------- null}
r -t 0.61312 -s 3 -d 0 -p ack -e 40 -c 2 -i 40 -a 2 -x {3.0 0.0 13 ------- null}
+ -t 0.61312 -s 0 -d 3 -p tcp -e 1040 -c 2 -i 41 -a 2 -x {0.0 3.0 27 ------- null}
+ -t 0.61312 -s 0 -d 3 -p tcp -e 1040 -c 2 -i 42 -a 2 -x {0.0 3.0 28 ------- null}
- -t 0.61912 -s 0 -d 3 -p tcp -e 1040 -c 2 -i 23 -a 2 -x {0.0 3.0 15 ------- null}
h -t 0.61912 -s 0 -d 3 -p tcp -e 1040 -c 2 -i 23 -a 2 -x {0.0 3.0 -1 ------- null}
r -t 0.62012 -s 0 -d 3 -p tcp -e 1040 -c 2 -i 21 -a 2 -x {0.0 3.0 14 ------- null}
+ -t 0.62012 -s 3 -d 0 -p ack -e 40 -c 2 -i 43 -a 2 -x {3.0 0.0 14 ------- null}
- -t 0.62012 -s 3 -d 0 -p ack -e 40 -c 2 -i 43 -a 2 -x {3.0 0.0 14 ------- null}
h -t 0.62012 -s 3 -d 0 -p ack -e 40 -c 2 -i 43 -a 2 -x {3.0 0.0 -1 ------- null}
r -t 0.62144 -s 3 -d 0 -p ack -e 40 -c 2 -i 43 -a 2 -x {3.0 0.0 14 ------- null}
+ -t 0.62144 -s 0 -d 3 -p tcp -e 1040 -c 2 -i 44 -a 2 -x {0.0 3.0 29 ------- null}
+ -t 0.62144 -s 0 -d 3 -p tcp -e 1040 -c 2 -i 45 -a 2 -x {0.0 3.0 30 ------- null}
- -t 0.62744 -s 0 -d 3 -p tcp -e 1040 -c 2 -i 24 -a 2 -x {0.0 3.0 16 ------- null}
h -t 0.62744 -s 0 -d 3 -p tcp -e 1040 -c 2 -i 24 -a 2 -x {0.0 3.0 -1 ------- null}
r -t 0.62844 -s 0 -d 3 -p tcp -e 1040 -c 2 -i 23 -a 2 -x {0.0 3.0 15 ------- null}
+ -t 0.62844 -s 3 -d 0 -p ack -e 40 -c 2 -i 46 -a 2 -x {3.0 0.0 15 ------- null}
- -t 0.62844 -s 3 -d 0 -p ack -e 40 -c 2 -i 46 -a 2 -x {3.0 0.0 15 ------- null}
h -t 0.62844 -s 3 -d 0 -p ack -e 40 -c 2 -i 46 -a 2 -x {3.0 0.0 -1 ------- null}
r -t 0.62976 -s 3 -d 0 -p ack -e 40 -c 2 -i 46 -a 2 -x {3.0 0.0 15 ------- null}
+ -t 0.62976 -s 0 -d 3 -p tcp -e 1040 -c 2 -i 47 -a 2 -x {0.0 3.0 31 ------- null}
+ -t 0.62976 -s 0 -d 3 -p tcp -e 1040 -c 2 -i 48 -a 2 -x {0.0 3.0 32 ------- null}
- -t 0.63576 -s 0 -d 3 -p tcp -e 1040 -c 2 -i 26 -a 2 -x {0.0 3.0 17 ------- null}
h -t 0.63576 -s 0 -d 3 -p tcp -e 1040 -c 2 -i 26 -a 2 -x {0.0 3.0 -1 ------- null}
r -t 0.63676 -s 0 -d 3 -p tcp -e 1040 -c 2 -i 24 -a 2 -x {0.0 3.0 16 ------- null}
+ -t 0.63676 -s 3 -d 0 -p ack -e 40 -c 2 -i 49 -a 2 -x {3.0 0.0 16 ------- null}
- -t 0.63676 -s 3 -d 0 -p ack -e 40 -c 2 -i 49 -a 2 -x {3.0 0.0 16 ------- null}
h -t 0.63676 -s 3 -d 0 -p ack -e 40 -c 2 -i 49 -a 2 -x {3.0 0.0 -1 ------- null}
r -t 0.63808 -s 3 -d 0 -p ack -e 40 -c 2 -i 49 -a 2 -x {3.0 0.0 16 ------- null}
+ -t 0.63808 -s 0 -d 3 -p tcp -e 1040 -c 2 -i 50 -a 2 -x {0.0 3.0 33 ------- null}
+ -t 0.63808 -s 0 -d 3 -p tcp -e 1040 -c 2 -i 51 -a 2 -x {0.0 3.0 34 ------- null}
- -t 0.64408 -s 0 -d 3 -p tcp -e 1040 -c 2 -i 27 -a 2 -x {0.0 3.0 18 ------- null}
h -t 0.64408 -s 0 -d 3 -p tcp -e 1040 -c 2 -i 27 -a 2 -x {0.0 3.0 -1 ------- null}
r -t 0.64508 -s 0 -d 3 -p tcp -e 1040 -c 2 -i 26 -a 2 -x {0.0 3.0 17 ------- null}
+ -t 0.64508 -s 3 -d 0 -p ack -e 40 -c 2 -i 52 -a 2 -x {3.0 0.0 17 ------- null}
- -t 0.64508 -s 3 -d 0 -p ack -e 40 -c 2 -i 52 -a 2 -x {3.0 0.0 17 ------- null}
h -t 0.64508 -s 3 -d 0 -p ack -e 40 -c 2 -i 52 -a 2 -x {3.0 0.0 -1 ------- null}
r -t 0.6464 -s 3 -d 0 -p ack -e 40 -c 2 -i 52 -a 2 -x {3.0 0.0 17 ------- null}
+ -t 0.6464 -s 0 -d 3 -p tcp -e 1040 -c 2 -i 53 -a 2 -x {0.0 3.0 35 ------- null}
+ -t 0.6464 -s 0 -d 3 -p tcp -e 1040 -c 2 -i 54 -a 2 -x {0.0 3.0 36 ------- null}
- -t 0.6524 -s 0 -d 3 -p tcp -e 1040 -c 2 -i 29 -a 2 -x {0.0 3.0 19 ------- null}
h -t 0.6524 -s 0 -d 3 -p tcp -e 1040 -c 2 -i 29 -a 2 -x {0.0 3.0 -1 ------- null}
r -t 0.6534 -s 0 -d 3 -p tcp -e 1040 -c 2 -i 27 -a 2 -x {0.0 3.0 18 ------- null}
+ -t 0.6534 -s 3 -d 0 -p ack -e 40 -c 2 -i 55 -a 2 -x {3.0 0.0 18 ------- null}
- -t 0.6534 -s 3 -d 0 -p ack -e 40 -c 2 -i 55 -a 2 -x {3.0 0.0 18 ------- null}
h -t 0.6534 -s 3 -d 0 -p ack -e 40 -c 2 -i 55 -a 2 -x {3.0 0.0 -1 ------- null}
r -t 0.65472 -s 3 -d 0 -p ack -e 40 -c 2 -i 55 -a 2 -x {3.0 0.0 18 ------- null}
+ -t 0.65472 -s 0 -d 3 -p tcp -e 1040 -c 2 -i 56 -a 2 -x {0.0 3.0 37 ------- null}
+ -t 0.65472 -s 0 -d 3 -p tcp -e 1040 -c 2 -i 57 -a 2 -x {0.0 3.0 38 ------- null}
- -t 0.66072 -s 0 -d 3 -p tcp -e 1040 -c 2 -i 30 -a 2 -x {0.0 3.0 20 ------- null}
h -t 0.66072 -s 0 -d 3 -p tcp -e 1040 -c 2 -i 30 -a 2 -x {0.0 3.0 -1 ------- null}
r -t 0.66172 -s 0 -d 3 -p tcp -e 1040 -c 2 -i 29 -a 2 -x {0.0 3.0 19 ------- null}
+ -t 0.66172 -s 3 -d 0 -p ack -e 40 -c 2 -i 58 -a 2 -x {3.0 0.0 19 ------- null}
- -t 0.66172 -s 3 -d 0 -p ack -e 40 -c 2 -i 58 -a 2 -x {3.0 0.0 19 ------- null}
h -t 0.66172 -s 3 -d 0 -p ack -e 40 -c 2 -i 58 -a 2 -x {3.0 0.0 -1 ------- null}
r -t 0.66304 -s 3 -d 0 -p ack -e 40 -c 2 -i 58 -a 2 -x {3.0 0.0 19 ------- null}
+ -t 0.66304 -s 0 -d 3 -p tcp -e 1040 -c 2 -i 59 -a 2 -x {0.0 3.0 39 ------- null}
- -t 0.66904 -s 0 -d 3 -p tcp -e 1040 -c 2 -i 32 -a 2 -x {0.0 3.0 21 ------- null}
h -t 0.66904 -s 0 -d 3 -p tcp -e 1040 -c 2 -i 32 -a 2 -x {0.0 3.0 -1 ------- null}
r -t 0.67004 -s 0 -d 3 -p tcp -e 1040 -c 2 -i 30 -a 2 -x {0.0 3.0 20 ------- null}
+ -t 0.67004 -s 3 -d 0 -p ack -e 40 -c 2 -i 60 -a 2 -x {3.0 0.0 20 ------- null}
- -t 0.67004 -s 3 -d 0 -p ack -e 40 -c 2 -i 60 -a 2 -x {3.0 0.0 20 ------- null}
h -t 0.67004 -s 3 -d 0 -p ack -e 40 -c 2 -i 60 -a 2 -x {3.0 0.0 -1 ------- null}
r -t 0.67136 -s 3 -d 0 -p ack -e 40 -c 2 -i 60 -a 2 -x {3.0 0.0 20 ------- null}
+ -t 0.67136 -s 0 -d 3 -p tcp -e 1040 -c 2 -i 61 -a 2 -x {0.0 3.0 40 ------- null}
- -t 0.67736 -s 0 -d 3 -p tcp -e 1040 -c 2 -i 33 -a 2 -x {0.0 3.0 22 ------- null}
h -t 0.67736 -s 0 -d 3 -p tcp -e 1040 -c 2 -i 33 -a 2 -x {0.0 3.0 -1 ------- null}
r -t 0.67836 -s 0 -d 3 -p tcp -e 1040 -c 2 -i 32 -a 2 -x {0.0 3.0 21 ------- null}
+ -t 0.67836 -s 3 -d 0 -p ack -e 40 -c 2 -i 62 -a 2 -x {3.0 0.0 21 ------- null}
- -t 0.67836 -s 3 -d 0 -p ack -e 40 -c 2 -i 62 -a 2 -x {3.0 0.0 21 ------- null}
h -t 0.67836 -s 3 -d 0 -p ack -e 40 -c 2 -i 62 -a 2 -x {3.0 0.0 -1 ------- null}
r -t 0.67968 -s 3 -d 0 -p ack -e 40 -c 2 -i 62 -a 2 -x {3.0 0.0 21 ------- null}
+ -t 0.67968 -s 0 -d 3 -p tcp -e 1040 -c 2 -i 63 -a 2 -x {0.0 3.0 41 ------- null}
- -t 0.68568 -s 0 -d 3 -p tcp -e 1040 -c 2 -i 35 -a 2 -x {0.0 3.0 23 ------- null}
h -t 0.68568 -s 0 -d 3 -p tcp -e 1040 -c 2 -i 35 -a 2 -x {0.0 3.0 -1 ------- null}
r -t 0.68668 -s 0 -d 3 -p tcp -e 1040 -c 2 -i 33 -a 2 -x {0.0 3.0 22 ------- null}
+ -t 0.68668 -s 3 -d 0 -p ack -e 40 -c 2 -i 64 -a 2 -x {3.0 0.0 22 ------- null}
- -t 0.68668 -s 3 -d 0 -p ack -e 40 -c 2 -i 64 -a 2 -x {3.0 0.0 22 ------- null}
h -t 0.68668 -s 3 -d 0 -p ack -e 40 -c 2 -i 64 -a 2 -x {3.0 0.0 -1 ------- null}
r -t 0.688 -s 3 -d 0 -p ack -e 40 -c 2 -i 64 -a 2 -x {3.0 0.0 22 ------- null}
+ -t 0.688 -s 0 -d 3 -p tcp -e 1040 -c 2 -i 65 -a 2 -x {0.0 3.0 42 ------- null}
- -t 0.694 -s 0 -d 3 -p tcp -e 1040 -c 2 -i 36 -a 2 -x {0.0 3.0 24 ------- null}
h -t 0.694 -s 0 -d 3 -p tcp -e 1040 -c 2 -i 36 -a 2 -x {0.0 3.0 -1 ------- null}
r -t 0.695 -s 0 -d 3 -p tcp -e 1040 -c 2 -i 35 -a 2 -x {0.0 3.0 23 ------- null}
+ -t 0.695 -s 3 -d 0 -p ack -e 40 -c 2 -i 66 -a 2 -x {3.0 0.0 23 ------- null}
- -t 0.695 -s 3 -d 0 -p ack -e 40 -c 2 -i 66 -a 2 -x {3.0 0.0 23 ------- null}
h -t 0.695 -s 3 -d 0 -p ack -e 40 -c 2 -i 66 -a 2 -x {3.0 0.0 -1 ------- null}
r -t 0.69632 -s 3 -d 0 -p ack -e 40 -c 2 -i 66 -a 2 -x {3.0 0.0 23 ------- null}
+ -t 0.69632 -s 0 -d 3 -p tcp -e 1040 -c 2 -i 67 -a 2 -x {0.0 3.0 43 ------- null}
- -t 0.70232 -s 0 -d 3 -p tcp -e 1040 -c 2 -i 38 -a 2 -x {0.0 3.0 25 ------- null}
h -t 0.70232 -s 0 -d 3 -p tcp -e 1040 -c 2 -i 38 -a 2 -x {0.0 3.0 -1 ------- null}
r -t 0.70332 -s 0 -d 3 -p tcp -e 1040 -c 2 -i 36 -a 2 -x {0.0 3.0 24 ------- null}
+ -t 0.70332 -s 3 -d 0 -p ack -e 40 -c 2 -i 68 -a 2 -x {3.0 0.0 24 ------- null}
- -t 0.70332 -s 3 -d 0 -p ack -e 40 -c 2 -i 68 -a 2 -x {3.0 0.0 24 ------- null}
h -t 0.70332 -s 3 -d 0 -p ack -e 40 -c 2 -i 68 -a 2 -x {3.0 0.0 -1 ------- null}
r -t 0.70464 -s 3 -d 0 -p ack -e 40 -c 2 -i 68 -a 2 -x {3.0 0.0 24 ------- null}
+ -t 0.70464 -s 0 -d 3 -p tcp -e 1040 -c 2 -i 69 -a 2 -x {0.0 3.0 44 ------- null}
- -t 0.71064 -s 0 -d 3 -p tcp -e 1040 -c 2 -i 39 -a 2 -x {0.0 3.0 26 ------- null}
h -t 0.71064 -s 0 -d 3 -p tcp -e 1040 -c 2 -i 39 -a 2 -x {0.0 3.0 -1 ------- null}
r -t 0.71164 -s 0 -d 3 -p tcp -e 1040 -c 2 -i 38 -a 2 -x {0.0 3.0 25 ------- null}
+ -t 0.71164 -s 3 -d 0 -p ack -e 40 -c 2 -i 70 -a 2 -x {3.0 0.0 25 ------- null}
- -t 0.71164 -s 3 -d 0 -p ack -e 40 -c 2 -i 70 -a 2 -x {3.0 0.0 25 ------- null}
h -t 0.71164 -s 3 -d 0 -p ack -e 40 -c 2 -i 70 -a 2 -x {3.0 0.0 -1 ------- null}
r -t 0.71296 -s 3 -d 0 -p ack -e 40 -c 2 -i 70 -a 2 -x {3.0 0.0 25 ------- null}
+ -t 0.71296 -s 0 -d 3 -p tcp -e 1040 -c 2 -i 71 -a 2 -x {0.0 3.0 45 ------- null}
- -t 0.71896 -s 0 -d 3 -p tcp -e 1040 -c 2 -i 41 -a 2 -x {0.0 3.0 27 ------- null}
h -t 0.71896 -s 0 -d 3 -p tcp -e 1040 -c 2 -i 41 -a 2 -x {0.0 3.0 -1 ------- null}
r -t 0.71996 -s 0 -d 3 -p tcp -e 1040 -c 2 -i 39 -a 2 -x {0.0 3.0 26 ------- null}
+ -t 0.71996 -s 3 -d 0 -p ack -e 40 -c 2 -i 72 -a 2 -x {3.0 0.0 26 ------- null}
- -t 0.71996 -s 3 -d 0 -p ack -e 40 -c 2 -i 72 -a 2 -x {3.0 0.0 26 ------- null}
h -t 0.71996 -s 3 -d 0 -p ack -e 40 -c 2 -i 72 -a 2 -x {3.0 0.0 -1 ------- null}
r -t 0.72128 -s 3 -d 0 -p ack -e 40 -c 2 -i 72 -a 2 -x {3.0 0.0 26 ------- null}
+ -t 0.72128 -s 0 -d 3 -p tcp -e 1040 -c 2 -i 73 -a 2 -x {0.0 3.0 46 ------- null}
- -t 0.72728 -s 0 -d 3 -p tcp -e 1040 -c 2 -i 42 -a 2 -x {0.0 3.0 28 ------- null}
h -t 0.72728 -s 0 -d 3 -p tcp -e 1040 -c 2 -i 42 -a 2 -x {0.0 3.0 -1 ------- null}
r -t 0.72828 -s 0 -d 3 -p tcp -e 1040 -c 2 -i 41 -a 2 -x {0.0 3.0 27 ------- null}
+ -t 0.72828 -s 3 -d 0 -p ack -e 40 -c 2 -i 74 -a 2 -x {3.0 0.0 27 ------- null}
- -t 0.72828 -s 3 -d 0 -p ack -e 40 -c 2 -i 74 -a 2 -x {3.0 0.0 27 ------- null}
h -t 0.72828 -s 3 -d 0 -p ack -e 40 -c 2 -i 74 -a 2 -x {3.0 0.0 -1 ------- null}
r -t 0.7296 -s 3 -d 0 -p ack -e 40 -c 2 -i 74 -a 2 -x {3.0 0.0 27 ------- null}
+ -t 0.7296 -s 0 -d 3 -p tcp -e 1040 -c 2 -i 75 -a 2 -x {0.0 3.0 47 ------- null}
- -t 0.7356 -s 0 -d 3 -p tcp -e 1040 -c 2 -i 44 -a 2 -x {0.0 3.0 29 ------- null}
h -t 0.7356 -s 0 -d 3 -p tcp -e 1040 -c 2 -i 44 -a 2 -x {0.0 3.0 -1 ------- null}
r -t 0.7366 -s 0 -d 3 -p tcp -e 1040 -c 2 -i 42 -a 2 -x {0.0 3.0 28 ------- null}
+ -t 0.7366 -s 3 -d 0 -p ack -e 40 -c 2 -i 76 -a 2 -x {3.0 0.0 28 ------- null}
- -t 0.7366 -s 3 -d 0 -p ack -e 40 -c 2 -i 76 -a 2 -x {3.0 0.0 28 ------- null}
h -t 0.7366 -s 3 -d 0 -p ack -e 40 -c 2 -i 76 -a 2 -x {3.0 0.0 -1 ------- null}
r -t 0.73792 -s 3 -d 0 -p ack -e 40 -c 2 -i 76 -a 2 -x {3.0 0.0 28 ------- null}
+ -t 0.73792 -s 0 -d 3 -p tcp -e 1040 -c 2 -i 77 -a 2 -x {0.0 3.0 48 ------- null}
- -t 0.74392 -s 0 -d 3 -p tcp -e 1040 -c 2 -i 45 -a 2 -x {0.0 3.0 30 ------- null}
h -t 0.74392 -s 0 -d 3 -p tcp -e 1040 -c 2 -i 45 -a 2 -x {0.0 3.0 -1 ------- null}
r -t 0.74492 -s 0 -d 3 -p tcp -e 1040 -c 2 -i 44 -a 2 -x {0.0 3.0 29 ------- null}
+ -t 0.74492 -s 3 -d 0 -p ack -e 40 -c 2 -i 78 -a 2 -x {3.0 0.0 29 ------- null}
- -t 0.74492 -s 3 -d 0 -p ack -e 40 -c 2 -i 78 -a 2 -x {3.0 0.0 29 ------- null}
h -t 0.74492 -s 3 -d 0 -p ack -e 40 -c 2 -i 78 -a 2 -x {3.0 0.0 -1 ------- null}
r -t 0.74624 -s 3 -d 0 -p ack -e 40 -c 2 -i 78 -a 2 -x {3.0 0.0 29 ------- null}
+ -t 0.74624 -s 0 -d 3 -p tcp -e 1040 -c 2 -i 79 -a 2 -x {0.0 3.0 49 ------- null}
- -t 0.75224 -s 0 -d 3 -p tcp -e 1040 -c 2 -i 47 -a 2 -x {0.0 3.0 31 ------- null}
h -t 0.75224 -s 0 -d 3 -p tcp -e 1040 -c 2 -i 47 -a 2 -x {0.0 3.0 -1 ------- null}
r -t 0.75324 -s 0 -d 3 -p tcp -e 1040 -c 2 -i 45 -a 2 -x {0.0 3.0 30 ------- null}
+ -t 0.75324 -s 3 -d 0 -p ack -e 40 -c 2 -i 80 -a 2 -x {3.0 0.0 30 ------- null}
- -t 0.75324 -s 3 -d 0 -p ack -e 40 -c 2 -i 80 -a 2 -x {3.0 0.0 30 ------- null}
h -t 0.75324 -s 3 -d 0 -p ack -e 40 -c 2 -i 80 -a 2 -x {3.0 0.0 -1 ------- null}
r -t 0.75456 -s 3 -d 0 -p ack -e 40 -c 2 -i 80 -a 2 -x {3.0 0.0 30 ------- null}
+ -t 0.75456 -s 0 -d 3 -p tcp -e 1040 -c 2 -i 81 -a 2 -x {0.0 3.0 50 ------- null}
- -t 0.76056 -s 0 -d 3 -p tcp -e 1040 -c 2 -i 48 -a 2 -x {0.0 3.0 32 ------- null}
h -t 0.76056 -s 0 -d 3 -p tcp -e 1040 -c 2 -i 48 -a 2 -x {0.0 3.0 -1 ------- null}
r -t 0.76156 -s 0 -d 3 -p tcp -e 1040 -c 2 -i 47 -a 2 -x {0.0 3.0 31 ------- null}
+ -t 0.76156 -s 3 -d 0 -p ack -e 40 -c 2 -i 82 -a 2 -x {3.0 0.0 31 ------- null}
- -t 0.76156 -s 3 -d 0 -p ack -e 40 -c 2 -i 82 -a 2 -x {3.0 0.0 31 ------- null}
h -t 0.76156 -s 3 -d 0 -p ack -e 40 -c 2 -i 82 -a 2 -x {3.0 0.0 -1 ------- null}
r -t 0.76288 -s 3 -d 0 -p ack -e 40 -c 2 -i 82 -a 2 -x {3.0 0.0 31 ------- null}
+ -t 0.76288 -s 0 -d 3 -p tcp -e 1040 -c 2 -i 83 -a 2 -x {0.0 3.0 51 ------- null}
- -t 0.76888 -s 0 -d 3 -p tcp -e 1040 -c 2 -i 50 -a 2 -x {0.0 3.0 33 ------- null}
h -t 0.76888 -s 0 -d 3 -p tcp -e 1040 -c 2 -i 50 -a 2 -x {0.0 3.0 -1 ------- null}
r -t 0.76988 -s 0 -d 3 -p tcp -e 1040 -c 2 -i 48 -a 2 -x {0.0 3.0 32 ------- null}
+ -t 0.76988 -s 3 -d 0 -p ack -e 40 -c 2 -i 84 -a 2 -x {3.0 0.0 32 ------- null}
- -t 0.76988 -s 3 -d 0 -p ack -e 40 -c 2 -i 84 -a 2 -x {3.0 0.0 32 ------- null}
h -t 0.76988 -s 3 -d 0 -p ack -e 40 -c 2 -i 84 -a 2 -x {3.0 0.0 -1 ------- null}
r -t 0.7712 -s 3 -d 0 -p ack -e 40 -c 2 -i 84 -a 2 -x {3.0 0.0 32 ------- null}
+ -t 0.7712 -s 0 -d 3 -p tcp -e 1040 -c 2 -i 85 -a 2 -x {0.0 3.0 52 ------- null}
- -t 0.7772 -s 0 -d 3 -p tcp -e 1040 -c 2 -i 51 -a 2 -x {0.0 3.0 34 ------- null}
h -t 0.7772 -s 0 -d 3 -p tcp -e 1040 -c 2 -i 51 -a 2 -x {0.0 3.0 -1 ------- null}
r -t 0.7782 -s 0 -d 3 -p tcp -e 1040 -c 2 -i 50 -a 2 -x {0.0 3.0 33 ------- null}
+ -t 0.7782 -s 3 -d 0 -p ack -e 40 -c 2 -i 86 -a 2 -x {3.0 0.0 33 ------- null}
- -t 0.7782 -s 3 -d 0 -p ack -e 40 -c 2 -i 86 -a 2 -x {3.0 0.0 33 ------- null}
h -t 0.7782 -s 3 -d 0 -p ack -e 40 -c 2 -i 86 -a 2 -x {3.0 0.0 -1 ------- null}
r -t 0.77952 -s 3 -d 0 -p ack -e 40 -c 2 -i 86 -a 2 -x {3.0 0.0 33 ------- null}
+ -t 0.77952 -s 0 -d 3 -p tcp -e 1040 -c 2 -i 87 -a 2 -x {0.0 3.0 53 ------- null}
- -t 0.78552 -s 0 -d 3 -p tcp -e 1040 -c 2 -i 53 -a 2 -x {0.0 3.0 35 ------- null}
h -t 0.78552 -s 0 -d 3 -p tcp -e 1040 -c 2 -i 53 -a 2 -x {0.0 3.0 -1 ------- null}
r -t 0.78652 -s 0 -d 3 -p tcp -e 1040 -c 2 -i 51 -a 2 -x {0.0 3.0 34 ------- null}
+ -t 0.78652 -s 3 -d 0 -p ack -e 40 -c 2 -i 88 -a 2 -x {3.0 0.0 34 ------- null}
- -t 0.78652 -s 3 -d 0 -p ack -e 40 -c 2 -i 88 -a 2 -x {3.0 0.0 34 ------- null}
h -t 0.78652 -s 3 -d 0 -p ack -e 40 -c 2 -i 88 -a 2 -x {3.0 0.0 -1 ------- null}
r -t 0.78784 -s 3 -d 0 -p ack -e 40 -c 2 -i 88 -a 2 -x {3.0 0.0 34 ------- null}
+ -t 0.78784 -s 0 -d 3 -p tcp -e 1040 -c 2 -i 89 -a 2 -x {0.0 3.0 54 ------- null}
- -t 0.79384 -s 0 -d 3 -p tcp -e 1040 -c 2 -i 54 -a 2 -x {0.0 3.0 36 ------- null}
h -t 0.79384 -s 0 -d 3 -p tcp -e 1040 -c 2 -i 54 -a 2 -x {0.0 3.0 -1 ------- null}
r -t 0.79484 -s 0 -d 3 -p tcp -e 1040 -c 2 -i 53 -a 2 -x {0.0 3.0 35 ------- null}
+ -t 0.79484 -s 3 -d 0 -p ack -e 40 -c 2 -i 90 -a 2 -x {3.0 0.0 35 ------- null}
- -t 0.79484 -s 3 -d 0 -p ack -e 40 -c 2 -i 90 -a 2 -x {3.0 0.0 35 ------- null}
h -t 0.79484 -s 3 -d 0 -p ack -e 40 -c 2 -i 90 -a 2 -x {3.0 0.0 -1 ------- null}
r -t 0.79616 -s 3 -d 0 -p ack -e 40 -c 2 -i 90 -a 2 -x {3.0 0.0 35 ------- null}
+ -t 0.79616 -s 0 -d 3 -p tcp -e 1040 -c 2 -i 91 -a 2 -x {0.0 3.0 55 ------- null}
- -t 0.80216 -s 0 -d 3 -p tcp -e 1040 -c 2 -i 56 -a 2 -x {0.0 3.0 37 ------- null}
h -t 0.80216 -s 0 -d 3 -p tcp -e 1040 -c 2 -i 56 -a 2 -x {0.0 3.0 -1 ------- null}
r -t 0.80316 -s 0 -d 3 -p tcp -e 1040 -c 2 -i 54 -a 2 -x {0.0 3.0 36 ------- null}
+ -t 0.80316 -s 3 -d 0 -p ack -e 40 -c 2 -i 92 -a 2 -x {3.0 0.0 36 ------- null}
- -t 0.80316 -s 3 -d 0 -p ack -e 40 -c 2 -i 92 -a 2 -x {3.0 0.0 36 ------- null}
h -t 0.80316 -s 3 -d 0 -p ack -e 40 -c 2 -i 92 -a 2 -x {3.0 0.0 -1 ------- null}
r -t 0.80448 -s 3 -d 0 -p ack -e 40 -c 2 -i 92 -a 2 -x {3.0 0.0 36 ------- null}
+ -t 0.80448 -s 0 -d 3 -p tcp -e 1040 -c 2 -i 93 -a 2 -x {0.0 3.0 56 ------- null}
- -t 0.81048 -s 0 -d 3 -p tcp -e 1040 -c 2 -i 57 -a 2 -x {0.0 3.0 38 ------- null}
h -t 0.81048 -s 0 -d 3 -p tcp -e 1040 -c 2 -i 57 -a 2 -x {0.0 3.0 -1 ------- null}
r -t 0.81148 -s 0 -d 3 -p tcp -e 1040 -c 2 -i 56 -a 2 -x {0.0 3.0 37 ------- null}
+ -t 0.81148 -s 3 -d 0 -p ack -e 40 -c 2 -i 94 -a 2 -x {3.0 0.0 37 ------- null}
- -t 0.81148 -s 3 -d 0 -p ack -e 40 -c 2 -i 94 -a 2 -x {3.0 0.0 37 ------- null}
h -t 0.81148 -s 3 -d 0 -p ack -e 40 -c 2 -i 94 -a 2 -x {3.0 0.0 -1 ------- null}
r -t 0.8128 -s 3 -d 0 -p ack -e 40 -c 2 -i 94 -a 2 -x {3.0 0.0 37 ------- null}
+ -t 0.8128 -s 0 -d 3 -p tcp -e 1040 -c 2 -i 95 -a 2 -x {0.0 3.0 57 ------- null}
- -t 0.8188 -s 0 -d 3 -p tcp -e 1040 -c 2 -i 59 -a 2 -x {0.0 3.0 39 ------- null}
h -t 0.8188 -s 0 -d 3 -p tcp -e 1040 -c 2 -i 59 -a 2 -x {0.0 3.0 -1 ------- null}
r -t 0.8198 -s 0 -d 3 -p tcp -e 1040 -c 2 -i 57 -a 2 -x {0.0 3.0 38 ------- null}
+ -t 0.8198 -s 3 -d 0 -p ack -e 40 -c 2 -i 96 -a 2 -x {3.0 0.0 38 ------- null}
- -t 0.8198 -s 3 -d 0 -p ack -e 40 -c 2 -i 96 -a 2 -x {3.0 0.0 38 ------- null}
h -t 0.8198 -s 3 -d 0 -p ack -e 40 -c 2 -i 96 -a 2 -x {3.0 0.0 -1 ------- null}
r -t 0.82112 -s 3 -d 0 -p ack -e 40 -c 2 -i 96 -a 2 -x {3.0 0.0 38 ------- null}
+ -t 0.82112 -s 0 -d 3 -p tcp -e 1040 -c 2 -i 97 -a 2 -x {0.0 3.0 58 ------- null}
- -t 0.82712 -s 0 -d 3 -p tcp -e 1040 -c 2 -i 61 -a 2 -x {0.0 3.0 40 ------- null}
h -t 0.82712 -s 0 -d 3 -p tcp -e 1040 -c 2 -i 61 -a 2 -x {0.0 3.0 -1 ------- null}
r -t 0.82812 -s 0 -d 3 -p tcp -e 1040 -c 2 -i 59 -a 2 -x {0.0 3.0 39 ------- null}
+ -t 0.82812 -s 3 -d 0 -p ack -e 40 -c 2 -i 98 -a 2 -x {3.0 0.0 39 ------- null}
- -t 0.82812 -s 3 -d 0 -p ack -e 40 -c 2 -i 98 -a 2 -x {3.0 0.0 39 ------- null}
h -t 0.82812 -s 3 -d 0 -p ack -e 40 -c 2 -i 98 -a 2 -x {3.0 0.0 -1 ------- null}
r -t 0.82944 -s 3 -d 0 -p ack -e 40 -c 2 -i 98 -a 2 -x {3.0 0.0 39 ------- null}
+ -t 0.82944 -s 0 -d 3 -p tcp -e 1040 -c 2 -i 99 -a 2 -x {0.0 3.0 59 ------- null}
- -t 0.83544 -s 0 -d 3 -p tcp -e 1040 -c 2 -i 63 -a 2 -x {0.0 3.0 41 ------- null}
h -t 0.83544 -s 0 -d 3 -p tcp -e 1040 -c 2 -i 63 -a 2 -x {0.0 3.0 -1 ------- null}
r -t 0.83644 -s 0 -d 3 -p tcp -e 1040 -c 2 -i 61 -a 2 -x {0.0 3.0 40 ------- null}
+ -t 0.83644 -s 3 -d 0 -p ack -e 40 -c 2 -i 100 -a 2 -x {3.0 0.0 40 ------- null}
- -t 0.83644 -s 3 -d 0 -p ack -e 40 -c 2 -i 100 -a 2 -x {3.0 0.0 40 ------- null}
h -t 0.83644 -s 3 -d 0 -p ack -e 40 -c 2 -i 100 -a 2 -x {3.0 0.0 -1 ------- null}
r -t 0.83776 -s 3 -d 0 -p ack -e 40 -c 2 -i 100 -a 2 -x {3.0 0.0 40 ------- null}
+ -t 0.83776 -s 0 -d 3 -p tcp -e 1040 -c 2 -i 101 -a 2 -x {0.0 3.0 60 ------- null}
- -t 0.84376 -s 0 -d 3 -p tcp -e 1040 -c 2 -i 65 -a 2 -x {0.0 3.0 42 ------- null}
h -t 0.84376 -s 0 -d 3 -p tcp -e 1040 -c 2 -i 65 -a 2 -x {0.0 3.0 -1 ------- null}
r -t 0.84476 -s 0 -d 3 -p tcp -e 1040 -c 2 -i 63 -a 2 -x {0.0 3.0 41 ------- null}
+ -t 0.84476 -s 3 -d 0 -p ack -e 40 -c 2 -i 102 -a 2 -x {3.0 0.0 41 ------- null}
- -t 0.84476 -s 3 -d 0 -p ack -e 40 -c 2 -i 102 -a 2 -x {3.0 0.0 41 ------- null}
h -t 0.84476 -s 3 -d 0 -p ack -e 40 -c 2 -i 102 -a 2 -x {3.0 0.0 -1 ------- null}
r -t 0.84608 -s 3 -d 0 -p ack -e 40 -c 2 -i 102 -a 2 -x {3.0 0.0 41 ------- null}
+ -t 0.84608 -s 0 -d 3 -p tcp -e 1040 -c 2 -i 103 -a 2 -x {0.0 3.0 61 ------- null}