V -t * -v 1.0a5 -a 0
A -t * -n 1 -p 0 -o 0x7fffffff -c 30 -a 1
A -t * -h 1 -m 1073741823 -s 0
c -t * -i 1 -n Blue
c -t * -i 2 -n Red
n -t * -a 0 -s 0 -S UP -v circle -c black -i black
n -t * -a 1 -s 1 -S UP -v circle -c black -i black
n -t * -a 2 -s 2 -S UP -v circle -c black -i black
n -t * -a 3 -s 3 -S UP -v circle -c black -i black
l -t * -s 0 -d 2 -S UP -r 1000000 -D 0.01 -c black -o right-down
l -t * -s 1 -d 2 -S UP -r 1000000 -D 0.01 -c black -o right-up
l -t * -s 2 -d 3 -S UP -r 1000000 -D 0.01 -c black -o right
q -t * -s 2 -d 3 -a 0.5
q -t * -s 3 -d 2 -a 0.5
+ -t 0.5 -s 0 -d 2 -p cbr -e 500 -c 1 -i 0 -a 1 -x {0.0 3.0 0 ------- null}
- -t 0.5 -s 0 -d 2 -p cbr -e 500 -c 1 -i 0 -a 1 -x {0.0 3.0 0 ------- null}
h -t 0.5 -s 0 -d 2 -p cbr -e 500 -c 1 -i 0 -a 1 -x {0.0 3.0 -1 ------- null}
+ -t 0.508928571428571 -s 0 -d 2 -p cbr -e 500 -c 1 -i 1 -a 1 -x {0.0 3.0 1 ------- null}
- -t 0.508928571428571 -s 0 -d 2 -p cbr -e 500 -c 1 -i 1 -a 1 -x {0.0 3.0 1 ------- null}
h -t 0.508928571428571 -s 0 -d 2 -p cbr -e 500 -c 1 -i 1 -a 1 -x {0.0 3.0 -1 ------- null}
r -t 0.514 -s 0 -d 2 -p cbr -e 500 -c 1 -i 0 -a 1 -x {0.0 3.0 0 ------- null}
+ -t 0.514 -s 2 -d 3 -p cbr -e 500 -c 1 -i 0 -a 1 -x {0.0 3.0 0 ------- null}
- -t 0.514 -s 2 -d 3 -p cbr -e 500 -c 1 -i 0 -a 1 -x {0.0 3.0 0 ------- null}
h -t 0.514 -s 2 -d 3 -p cbr -e 500 -c 1 -i 0 -a 1 -x {0.0 3.0 -1 ------- null}
+ -t 0.517857142857143 -s 0 -d 2 -p cbr -e 500 -c 1 -i 2 -a 1 -x {0.0 3.0 2 ------- null}
- -t 0.517857142857143 -s 0 -d 2 -p cbr -e 500 -c 1 -i 2 -a 1 -x {0.0 3.0 2 ------- null}
h -t 0.517857142857143 -s 0 -d 2 -p cbr -e 500 -c 1 -i 2 -a 1 -x {0.0 3.0 -1 ------- null}
r -t 0.522928571428571 -s 0 -d 2 -p cbr -e 500 -c 1 -i 1 -a 1 -x {0.0 3.0 1 ------- null}
+ -t 0.522928571428571 -s 2 -d 3 -p cbr -e 500 -c 1 -i 1 -a 1 -x {0.0 3.0 1 ------- null}
- -t 0.522928571428571 -s 2 -d 3 -p cbr -e 500 -c 1 -i 1 -a 1 -x {0.0 3.0 1 ------- null}
h -t 0.522928571428571 -s 2 -d 3 -p cbr -e 500 -c 1 -i 1 -a 1 -x {0.0 3.0 -1 ------- null}
+ -t 0.526785714285714 -s 0 -d 2 -p cbr -e 500 -c 1 -i 3 -a 1 -x {0.0 3.0 3 ------- null}
- -t 0.526785714285714 -s 0 -d 2 -p cbr -e 500 -c 1 -i 3 -a 1 -x {0.0 3.0 3 ------- null}
h -t 0.526785714285714 -s 0 -d 2 -p cbr -e 500 -c 1 -i 3 -a 1 -x {0.0 3.0 -1 ------- null}
r -t 0.528 -s 2 -d 3 -p cbr -e 500 -c 1 -i 0 -a 1 -x {0.0 3.0 0 ------- null}
r -t 0.531857142857143 -s 0 -d 2 -p cbr -e 500 -c 1 -i 2 -a 1 -x {0.0 3.0 2 ------- null}
+ -t 0.531857142857143 -s 2 -d 3 -p cbr -e 500 -c 1 -i 2 -a 1 -x {0.0 3.0 2 ------- null}
- -t 0.531857142857143 -s 2 -d 3 -p cbr -e 500 -c 1 -i 2 -a 1 -x {0.0 3.0 2 ------- null}
h -t 0.531857142857143 -s 2 -d 3 -p cbr -e 500 -c 1 -i 2 -a 1 -x {0.0 3.0 -1 ------- null}
+ -t 0.535714285714286 -s 0 -d 2 -p cbr -e 500 -c 1 -i 4 -a 1 -x {0.0 3.0 4 ------- null}
- -t 0.535714285714286 -s 0 -d 2 -p cbr -e 500 -c 1 -i 4 -a 1 -x {0.0 3.0 4 ------- null}
h -t 0.535714285714286 -s 0 -d 2 -p cbr -e 500 -c 1 -i 4 -a 1 -x {0.0 3.0 -1 ------- null}
r -t 0.536928571428571 -s 2 -d 3 -p cbr -e 500 -c 1 -i 1 -a 1 -x {0.0 3.0 1 ------- null}
r -t 0.540785714285714 -s 0 -d 2 -p cbr -e 500 -c 1 -i 3 -a 1 -x {0.0 3.0 3 ------- null}
+ -t 0.540785714285714 -s 2 -d 3 -p cbr -e 500 -c 1 -i 3 -a 1 -x {0.0 3.0 3 ------- null}
- -t 0.540785714285714 -s 2 -d 3 -p cbr -e 500 -c 1 -i 3 -a 1 -x {0.0 3.0 3 ------- null}
h -t 0.540785714285714 -s 2 -d 3 -p cbr -e 500 -c 1 -i 3 -a 1 -x {0.0 3.0 -1 ------- null}
+ -t 0.544642857142857 -s 0 -d 2 -p cbr -e 500 -c 1 -i 5 -a 1 -x {0.0 3.0 5 ------- null}
- -t 0.544642857142857 -s 0 -d 2 -p cbr -e 500 -c 1 -i 5 -a 1 -x {0.0 3.0 5 ------- null}
h -t 0.544642857142857 -s 0 -d 2 -p cbr -e 500 -c 1 -i 5 -a 1 -x {0.0 3.0 -1 ------- null}
r -t 0.545857142857143 -s 2 -d 3 -p cbr -e 500 -c 1 -i 2 -a 1 -x {0.0 3.0 2 ------- null}
r -t 0.549714285714286 -s 0 -d 2 -p cbr -e 500 -c 1 -i 4 -a 1 -x {0.0 3.0 4 ------- null}
+ -t 0.549714285714286 -s 2 -d 3 -p cbr -e 500 -c 1 -i 4 -a 1 -x {0.0 3.0 4 ------- null}
- -t 0.549714285714286 -s 2 -d 3 -p cbr -e 500 -c 1 -i 4 -a 1 -x {0.0 3.0 4 ------- null}
h -t 0.549714285714286 -s 2 -d 3 -p cbr -e 500 -c 1 -i 4 -a 1 -x {0.0 3.0 -1 ------- null}
+ -t 0.553571428571428 -s 0 -d 2 -p cbr -e 500 -c 1 -i 6 -a 1 -x {0.0 3.0 6 ------- null}
- -t 0.553571428571428 -s 0 -d 2 -p cbr -e 500 -c 1 -i 6 -a 1 -x {0.0 3.0 6 ------- null}
h -t 0.553571428571428 -s 0 -d 2 -p cbr -e 500 -c 1 -i 6 -a 1 -x {0.0 3.0 -1 ------- null}
r -t 0.554785714285714 -s 2 -d 3 -p cbr -e 500 -c 1 -i 3 -a 1 -x {0.0 3.0 3 ------- null}
r -t 0.558642857142857 -s 0 -d 2 -p cbr -e 500 -c 1 -i 5 -a 1 -x {0.0 3.0 5 ------- null}
+ -t 0.558642857142857 -s 2 -d 3 -p cbr -e 500 -c 1 -i 5 -a 1 -x {0.0 3.0 5 ------- null}
- -t 0.558642857142857 -s 2 -d 3 -p cbr -e 500 -c 1 -i 5 -a 1 -x {0.0 3.0 5 ------- null}
h -t 0.558642857142857 -s 2 -d 3 -p cbr -e 500 -c 1 -i 5 -a 1 -x {0.0 3.0 -1 ------- null}
+ -t 0.5625 -s 0 -d 2 -p cbr -e 500 -c 1 -i 7 -a 1 -x {0.0 3.0 7 ------- null}
- -t 0.5625 -s 0 -d 2 -p cbr -e 500 -c 1 -i 7 -a 1 -x {0.0 3.0 7 ------- null}
h -t 0.5625 -s 0 -d 2 -p cbr -e 500 -c 1 -i 7 -a 1 -x {0.0 3.0 -1 ------- null}
r -t 0.563714285714286 -s 2 -d 3 -p cbr -e 500 -c 1 -i 4 -a 1 -x {0.0 3.0 4 ------- null}
r -t 0.567571428571428 -s 0 -d 2 -p cbr -e 500 -c 1 -i 6 -a 1 -x {0.0 3.0 6 ------- null}
+ -t 0.567571428571428 -s 2 -d 3 -p cbr -e 500 -c 1 -i 6 -a 1 -x {0.0 3.0 6 ------- null}
- -t 0.567571428571428 -s 2 -d 3 -p cbr -e 500 -c 1 -i 6 -a 1 -x {0.0 3.0 6 ------- null}
h -t 0.567571428571428 -s 2 -d 3 -p cbr -e 500 -c 1 -i 6 -a 1 -x {0.0 3.0 -1 ------- null}
+ -t 0.571428571428571 -s 0 -d 2 -p cbr -e 500 -c 1 -i 8 -a 1 -x {0.0 3.0 8 ------- null}
- -t 0.571428571428571 -s 0 -d 2 -p cbr -e 500 -c 1 -i 8 -a 1 -x {0.0 3.0 8 ------- null}
h -t 0.571428571428571 -s 0 -d 2 -p cbr -e 500 -c 1 -i 8 -a 1 -x {0.0 3.0 -1 ------- null}
r -t 0.572642857142857 -s 2 -d 3 -p cbr -e 500 -c 1 -i 5 -a 1 -x {0.0 3.0 5 ------- null}
r -t 0.5765 -s 0 -d 2 -p cbr -e 500 -c 1 -i 7 -a 1 -x {0.0 3.0 7 ------- null}
+ -t 0.5765 -s 2 -d 3 -p cbr -e 500 -c 1 -i 7 -a 1 -x {0.0 3.0 7 ------- null}
- -t 0.5765 -s 2 -d 3 -p cbr -e 500 -c 1 -i 7 -a 1 -x {0.0 3.0 7 ------- null}
h -t 0.5765 -s 2 -d 3 -p cbr -e 500 -c 1 -i 7 -a 1 -x {0.0 3.0 -1 ------- null}
+ -t 0.580357142857143 -s 0 -d 2 -p cbr -e 500 -c 1 -i 9 -a 1 -x {0.0 3.0 9 ------- null}
- -t 0.580357142857143 -s 0 -d 2 -p cbr -e 500 -c 1 -i 9 -a 1 -x {0.0 3.0 9 ------- null}
h -t 0.580357142857143 -s 0 -d 2 -p cbr -e 500 -c 1 -i 9 -a 1 -x {0.0 3.0 -1 ------- null}
r -t 0.581571428571428 -s 2 -d 3 -p cbr -e 500 -c 1 -i 6 -a 1 -x {0.0 3.0 6 ------- null}
r -t 0.585428571428571 -s 0 -d 2 -p cbr -e 500 -c 1 -i 8 -a 1 -x {0.0 3.0 8 ------- null}
+ -t 0.585428571428571 -s 2 -d 3 -p cbr -e 500 -c 1 -i 8 -a 1 -x {0.0 3.0 8 ------- null}
- -t 0.585428571428571 -s 2 -d 3 -p cbr -e 500 -c 1 -i 8 -a 1 -x {0.0 3.0 8 ------- null}
h -t 0.585428571428571 -s 2 -d 3 -p cbr -e 500 -c 1 -i 8 -a 1 -x {0.0 3.0 -1 ------- null}
+ -t 0.589285714285714 -s 0 -d 2 -p cbr -e 500 -c 1 -i 10 -a 1 -x {0.0 3.0 10 ------- null}
- -t 0.589285714285714 -s 0 -d 2 -p cbr -e 500 -c 1 -i 10 -a 1 -x {0.0 3.0 10 ------- null}
h -t 0.589285714285714 -s 0 -d 2 -p cbr -e 500 -c 1 -i 10 -a 1 -x {0.0 3.0 -1 ------- null}
r -t 0.5905 -s 2 -d 3 -p cbr -e 500 -c 1 -i 7 -a 1 -x {0.0 3.0 7 ------- null}
r -t 0.594357142857143 -s 0 -d 2 -p cbr -e 500 -c 1 -i 9 -a 1 -x {0.0 3.0 9 ------- null}
+ -t 0.594357142857143 -s 2 -d 3 -p cbr -e 500 -c 1 -i 9 -a 1 -x {0.0 3.0 9 ------- null}
- -t 0.594357142857143 -s 2 -d 3 -p cbr -e 500 -c 1 -i 9 -a 1 -x {0.0 3.0 9 ------- null}
h -t 0.594357142857143 -s 2 -d 3 -p cbr -e 500 -c 1 -i 9 -a 1 -x {0.0 3.0 -1 ------- null}
+ -t 0.598214285714285 -s 0 -d 2 -p cbr -e 500 -c 1 -i 11 -a 1 -x {0.0 3.0 11 ------- null}
- -t 0.598214285714285 -s 0 -d 2 -p cbr -e 500 -c 1 -i 11 -a 1 -x {0.0 3.0 11 ------- null}
h -t 0.598214285714285 -s 0 -d 2 -p cbr -e 500 -c 1 -i 11 -a 1 -x {0.0 3.0 -1 ------- null}
r -t 0.599428571428571 -s 2 -d 3 -p cbr -e 500 -c 1 -i 8 -a 1 -x {0.0 3.0 8 ------- null}
r -t 0.603285714285714 -s 0 -d 2 -p cbr -e 500 -c 1 -i 10 -a 1 -x {0.0 3.0 10 ------- null}
+ -t 0.603285714285714 -s 2 -d 3 -p cbr -e 500 -c 1 -i 10 -a 1 -x {0.0 3.0 10 ------- null}
- -t 0.603285714285714 -s 2 -d 3 -p cbr -e 500 -c 1 -i 10 -a 1 -x {0.0 3.0 10 ------- null}
h -t 0.603285714285714 -s 2 -d 3 -p cbr -e 500 -c 1 -i 10 -a 1 -x {0.0 3.0 -1 ------- null}
+ -t 0.607142857142857 -s 0 -d 2 -p cbr -e 500 -c 1 -i 12 -a 1 -x {0.0 3.0 12 ------- null}
- -t 0.607142857142857 -s 0 -d 2 -p cbr -e 500 -c 1 -i 12 -a 1 -x {0.0 3.0 12 ------- null}
h -t 0.607142857142857 -s 0 -d 2 -p cbr -e 500 -c 1 -i 12 -a 1 -x {0.0 3.0 -1 ------- null}
r -t 0.608357142857143 -s 2 -d 3 -p cbr -e 500 -c 1 -i 9 -a 1 -x {0.0 3.0 9 ------- null}
r -t 0.612214285714285 -s 0 -d 2 -p cbr -e 500 -c 1 -i 11 -a 1 -x {0.0 3.0 11 ------- null}
+ -t 0.612214285714285 -s 2 -d 3 -p cbr -e 500 -c 1 -i 11 -a 1 -x {0.0 3.0 11 ------- null}
- -t 0.612214285714285 -s 2 -d 3 -p cbr -e 500 -c 1 -i 11 -a 1 -x {0.0 3.0 11 ------- null}
h -t 0.612214285714285 -s 2 -d 3 -p cbr -e 500 -c 1 -i 11 -a 1 -x {0.0 3.0 -1 ------- null}
+ -t 0.616071428571428 -s 0 -d 2 -p cbr -e 500 -c 1 -i 13 -a 1 -x {0.0 3.0 13 ------- null}
- -t 0.616071428571428 -s 0 -d 2 -p cbr -e 500 -c 1 -i 13 -a 1 -x {0.0 3.0 13 ------- null}
h -t 0.616071428571428 -s 0 -d 2 -p cbr -e 500 -c 1 -i 13 -a 1 -x {0.0 3.0 -1 ------- null}
r -t 0.617285714285714 -s 2 -d 3 -p cbr -e 500 -c 1 -i 10 -a 1 -x {0.0 3.0 10 ------- null}
r -t 0.621142857142857 -s 0 -d 2 -p cbr -e 500 -c 1 -i 12 -a 1 -x {0.0 3.0 12 ------- null}
+ -t 0.621142857142857 -s 2 -d 3 -p cbr -e 500 -c 1 -i 12 -a 1 -x {0.0 3.0 12 ------- null}
- -t 0.621142857142857 -s 2 -d 3 -p cbr -e 500 -c 1 -i 12 -a 1 -x {0.0 3.0 12 ------- null}
h -t 0.621142857142857 -s 2 -d 3 -p cbr -e 500 -c 1 -i 12 -a 1 -x {0.0 3.0 -1 ------- null}
+ -t 0.625 -s 0 -d 2 -p cbr -e 500 -c 1 -i 14 -a 1 -x {0.0 3.0 14 ------- null}
- -t 0.625 -s 0 -d 2 -p cbr -e 500 -c 1 -i 14 -a 1 -x {0.0 3.0 14 ------- null}
h -t 0.625 -s 0 -d 2 -p cbr -e 500 -c 1 -i 14 -a 1 -x {0.0 3.0 -1 ------- null}
r -t 0.626214285714285 -s 2 -d 3 -p cbr -e 500 -c 1 -i 11 -a 1 -x {0.0 3.0 11 ------- null}
r -t 0.630071428571428 -s 0 -d 2 -p cbr -e 500 -c 1 -i 13 -a 1 -x {0.0 3.0 13 ------- null}
+ -t 0.630071428571428 -s 2 -d 3 -p cbr -e 500 -c 1 -i 13 -a 1 -x {0.0 3.0 13 ------- null}
- -t 0.630071428571428 -s 2 -d 3 -p cbr -e 500 -c 1 -i 13 -a 1 -x {0.0 3.0 13 ------- null}
h -t 0.630071428571428 -s 2 -d 3 -p cbr -e 500 -c 1 -i 13 -a 1 -x {0.0 3.0 -1 ------- null}
+ -t 0.633928571428571 -s 0 -d 2 -p cbr -e 500 -c 1 -i 15 -a 1 -x {0.0 3.0 15 ------- null}
- -t 0.633928571428571 -s 0 -d 2 -p cbr -e 500 -c 1 -i 15 -a 1 -x {0.0 3.0 15 ------- null}
h -t 0.633928571428571 -s 0 -d 2 -p cbr -e 500 -c 1 -i 15 -a 1 -x {0.0 3.0 -1 ------- null}
r -t 0.635142857142857 -s 2 -d 3 -p cbr -e 500 -c 1 -i 12 -a 1 -x {0.0 3.0 12 ------- null}
r -t 0.639 -s 0 -d 2 -p cbr -e 500 -c 1 -i 14 -a 1 -x {0.0 3.0 14 ------- null}
+ -t 0.639 -s 2 -d 3 -p cbr -e 500 -c 1 -i 14 -a 1 -x {0.0 3.0 14 ------- null}
- -t 0.639 -s 2 -d 3 -p cbr -e 500 -c 1 -i 14 -a 1 -x {0.0 3.0 14 ------- null}
h -t 0.639 -s 2 -d 3 -p cbr -e 500 -c 1 -i 14 -a 1 -x {0.0 3.0 -1 ------- null}
+ -t 0.642857142857142 -s 0 -d 2 -p cbr -e 500 -c 1 -i 16 -a 1 -x {0.0 3.0 16 ------- null}
- -t 0.642857142857142 -s 0 -d 2 -p cbr -e 500 -c 1 -i 16 -a 1 -x {0.0 3.0 16 ------- null}
h -t 0.642857142857142 -s 0 -d 2 -p cbr -e 500 -c 1 -i 16 -a 1 -x {0.0 3.0 -1 ------- null}
r -t 0.644071428571428 -s 2 -d 3 -p cbr -e 500 -c 1 -i 13 -a 1 -x {0.0 3.0 13 ------- null}
r -t 0.647928571428571 -s 0 -d 2 -p cbr -e 500 -c 1 -i 15 -a 1 -x {0.0 3.0 15 ------- null}
+ -t 0.647928571428571 -s 2 -d 3 -p cbr -e 500 -c 1 -i 15 -a 1 -x {0.0 3.0 15 ------- null}
- -t 0.647928571428571 -s 2 -d 3 -p cbr -e 500 -c 1 -i 15 -a 1 -x {0.0 3.0 15 ------- null}
h -t 0.647928571428571 -s 2 -d 3 -p cbr -e 500 -c 1 -i 15 -a 1 -x {0.0 3.0 -1 ------- null}
+ -t 0.651785714285714 -s 0 -d 2 -p cbr -e 500 -c 1 -i 17 -a 1 -x {0.0 3.0 17 ------- null}
- -t 0.651785714285714 -s 0 -d 2 -p cbr -e 500 -c 1 -i 17 -a 1 -x {0.0 3.0 17 ------- null}
h -t 0.651785714285714 -s 0 -d 2 -p cbr -e 500 -c 1 -i 17 -a 1 -x {0.0 3.0 -1 ------- null}
r -t 0.653 -s 2 -d 3 -p cbr -e 500 -c 1 -i 14 -a 1 -x {0.0 3.0 14 ------- null}
r -t 0.656857142857142 -s 0 -d 2 -p cbr -e 500 -c 1 -i 16 -a 1 -x {0.0 3.0 16 ------- null}
+ -t 0.656857142857142 -s 2 -d 3 -p cbr -e 500 -c 1 -i 16 -a 1 -x {0.0 3.0 16 ------- null}
- -t 0.656857142857142 -s 2 -d 3 -p cbr -e 500 -c 1 -i 16 -a 1 -x {0.0 3.0 16 ------- null}
h -t 0.656857142857142 -s 2 -d 3 -p cbr -e 500 -c 1 -i 16 -a 1 -x {0.0 3.0 -1 ------- null}
+ -t 0.660714285714285 -s 0 -d 2 -p cbr -e 500 -c 1 -i 18 -a 1 -x {0.0 3.0 18 ------- null}
- -t 0.660714285714285 -s 0 -d 2 -p cbr -e 500 -c 1 -i 18 -a 1 -x {0.0 3.0 18 ------- null}
h -t 0.660714285714285 -s 0 -d 2 -p cbr -e 500 -c 1 -i 18 -a 1 -x {0.0 3.0 -1 ------- null}
r -t 0.661928571428571 -s 2 -d 3 -p cbr -e 500 -c 1 -i 15 -a 1 -x {0.0 3.0 15 ------- null}
r -t 0.665785714285714 -s 0 -d 2 -p cbr -e 500 -c 1 -i 17 -a 1 -x {0.0 3.0 17 ------- null}
+ -t 0.665785714285714 -s 2 -d 3 -p cbr -e 500 -c 1 -i 17 -a 1 -x {0.0 3.0 17 ------- null}
- -t 0.665785714285714 -s 2 -d 3 -p cbr -e 500 -c 1 -i 17 -a 1 -x {0.0 3.0 17 ------- null}
h -t 0.665785714285714 -s 2 -d 3 -p cbr -e 500 -c 1 -i 17 -a 1 -x {0.0 3.0 -1 ------- null}
+ -t 0.669642857142857 -s 0 -d 2 -p cbr -e 500 -c 1 -i 19 -a 1 -x {0.0 3.0 19 ------- null}
- -t 0.669642857142857 -s 0 -d 2 -p cbr -e 500 -c 1 -i 19 -a 1 -x {0.0 3.0 19 ------- null}
h -t 0.669642857142857 -s 0 -d 2 -p cbr -e 500 -c 1 -i 19 -a 1 -x {0.0 3.0 -1 ------- null}
r -t 0.670857142857142 -s 2 -d 3 -p cbr -e 500 -c 1 -i 16 -a 1 -x {0.0 3.0 16 ------- null}
r -t 0.674714285714285 -s 0 -d 2 -p cbr -e 500 -c 1 -i 18 -a 1 -x {0.0 3.0 18 ------- null}
+ -t 0.674714285714285 -s 2 -d 3 -p cbr -e 500 -c 1 -i 18 -a 1 -x {0.0 3.0 18 ------- null}
- -t 0.674714285714285 -s 2 -d 3 -p cbr -e 500 -c 1 -i 18 -a 1 -x {0.0 3.0 18 ------- null}
h -t 0.674714285714285 -s 2 -d 3 -p cbr -e 500 -c 1 -i 18 -a 1 -x {0.0 3.0 -1 ------- null}
+ -t 0.678571428571428 -s 0 -d 2 -p cbr -e 500 -c 1 -i 20 -a 1 -x {0.0 3.0 20 ------- null}
- -t 0.678571428571428 -s 0 -d 2 -p cbr -e 500 -c 1 -i 20 -a 1 -x {0.0 3.0 20 ------- null}
h -t 0.678571428571428 -s 0 -d 2 -p cbr -e 500 -c 1 -i 20 -a 1 -x {0.0 3.0 -1 ------- null}
r -t 0.679785714285714 -s 2 -d 3 -p cbr -e 500 -c 1 -i 17 -a 1 -x {0.0 3.0 17 ------- null}
r -t 0.683642857142857 -s 0 -d 2 -p cbr -e 500 -c 1 -i 19 -a 1 -x {0.0 3.0 19 ------- null}
+ -t 0.683642857142857 -s 2 -d 3 -p cbr -e 500 -c 1 -i 19 -a 1 -x {0.0 3.0 19 ------- null}
- -t 0.683642857142857 -s 2 -d 3 -p cbr -e 500 -c 1 -i 19 -a 1 -x {0.0 3.0 19 ------- null}
h -t 0.683642857142857 -s 2 -d 3 -p cbr -e 500 -c 1 -i 19 -a 1 -x {0.0 3.0 -1 ------- null}
+ -t 0.687499999999999 -s 0 -d 2 -p cbr -e 500 -c 1 -i 21 -a 1 -x {0.0 3.0 21 ------- null}
- -t 0.687499999999999 -s 0 -d 2 -p cbr -e 500 -c 1 -i 21 -a 1 -x {0.0 3.0 21 ------- null}
h -t 0.687499999999999 -s 0 -d 2 -p cbr -e 500 -c 1 -i 21 -a 1 -x {0.0 3.0 -1 ------- null}
r -t 0.688714285714285 -s 2 -d 3 -p cbr -e 500 -c 1 -i 18 -a 1 -x {0.0 3.0 18 ------- null}
r -t 0.692571428571428 -s 0 -d 2 -p cbr -e 500 -c 1 -i 20 -a 1 -x {0.0 3.0 20 ------- null}
+ -t 0.692571428571428 -s 2 -d 3 -p cbr -e 500 -c 1 -i 20 -a 1 -x {0.0 3.0 20 ------- null}
- -t 0.692571428571428 -s 2 -d 3 -p cbr -e 500 -c 1 -i 20 -a 1 -x {0.0 3.0 20 ------- null}
h -t 0.692571428571428 -s 2 -d 3 -p cbr -e 500 -c 1 -i 20 -a 1 -x {0.0 3.0 -1 ------- null}
+ -t 0.696428571428571 -s 0 -d 2 -p cbr -e 500 -c 1 -i 22 -a 1 -x {0.0 3.0 22 ------- null}
- -t 0.696428571428571 -s 0 -d 2 -p cbr -e 500 -c 1 -i 22 -a 1 -x {0.0 3.0 22 ------- null}
h -t 0.696428571428571 -s 0 -d 2 -p cbr -e 500 -c 1 -i 22 -a 1 -x {0.0 3.0 -1 ------- null}
r -t 0.697642857142857 -s 2 -d 3 -p cbr -e 500 -c 1 -i 19 -a 1 -x {0.0 3.0 19 ------- null}
r -t 0.701499999999999 -s 0 -d 2 -p cbr -e 500 -c 1 -i 21 -a 1 -x {0.0 3.0 21 ------- null}
+ -t 0.701499999999999 -s 2 -d 3 -p cbr -e 500 -c 1 -i 21 -a 1 -x {0.0 3.0 21 ------- null}
- -t 0.701499999999999 -s 2 -d 3 -p cbr -e 500 -c 1 -i 21 -a 1 -x {0.0 3.0 21 ------- null}
h -t 0.701499999999999 -s 2 -d 3 -p cbr -e 500 -c 1 -i 21 -a 1 -x {0.0 3.0 -1 ------- null}
+ -t 0.705357142857142 -s 0 -d 2 -p cbr -e 500 -c 1 -i 23 -a 1 -x {0.0 3.0 23 ------- null}
- -t 0.705357142857142 -s 0 -d 2 -p cbr -e 500 -c 1 -i 23 -a 1 -x {0.0 3.0 23 ------- null}
h -t 0.705357142857142 -s 0 -d 2 -p cbr -e 500 -c 1 -i 23 -a 1 -x {0.0 3.0 -1 ------- null}
r -t 0.706571428571428 -s 2 -d 3 -p cbr -e 500 -c 1 -i 20 -a 1 -x {0.0 3.0 20 ------- null}
r -t 0.710428571428571 -s 0 -d 2 -p cbr -e 500 -c 1 -i 22 -a 1 -x {0.0 3.0 22 ------- null}
+ -t 0.710428571428571 -s 2 -d 3 -p cbr -e 500 -c 1 -i 22 -a 1 -x {0.0 3.0 22 ------- null}
- -t 0.710428571428571 -s 2 -d 3 -p cbr -e 500 -c 1 -i 22 -a 1 -x {0.0 3.0 22 ------- null}
h -t 0.710428571428571 -s 2 -d 3 -p cbr -e 500 -c 1 -i 22 -a 1 -x {0.0 3.0 -1 ------- null}
+ -t 0.714285714285714 -s 0 -d 2 -p cbr -e 500 -c 1 -i 24 -a 1 -x {0.0 3.0 24 ------- null}
- -t 0.714285714285714 -s 0 -d 2 -p cbr -e 500 -c 1 -i 24 -a 1 -x {0.0 3.0 24 ------- null}
h -t 0.714285714285714 -s 0 -d 2 -p cbr -e 500 -c 1 -i 24 -a 1 -x {0.0 3.0 -1 ------- null}
r -t 0.715499999999999 -s 2 -d 3 -p cbr -e 500 -c 1 -i 21 -a 1 -x {0.0 3.0 21 ------- null}
r -t 0.719357142857142 -s 0 -d 2 -p cbr -e 500 -c 1 -i 23 -a 1 -x {0.0 3.0 23 ------- null}
+ -t 0.719357142857142 -s 2 -d 3 -p cbr -e 500 -c 1 -i 23 -a 1 -x {0.0 3.0 23 ------- null}
- -t 0.719357142857142 -s 2 -d 3 -p cbr -e 500 -c 1 -i 23 -a 1 -x {0.0 3.0 23 ------- null}
h -t 0.719357142857142 -s 2 -d 3 -p cbr -e 500 -c 1 -i 23 -a 1 -x {0.0 3.0 -1 ------- null}
+ -t 0.723214285714285 -s 0 -d 2 -p cbr -e 500 -c 1 -i 25 -a 1 -x {0.0 3.0 25 ------- null}
- -t 0.723214285714285 -s 0 -d 2 -p cbr -e 500 -c 1 -i 25 -a 1 -x {0.0 3.0 25 ------- null}
h -t 0.723214285714285 -s 0 -d 2 -p cbr -e 500 -c 1 -i 25 -a 1 -x {0.0 3.0 -1 ------- null}
r -t 0.724428571428571 -s 2 -d 3 -p cbr -e 500 -c 1 -i 22 -a 1 -x {0.0 3.0 22 ------- null}
r -t 0.728285714285714 -s 0 -d 2 -p cbr -e 500 -c 1 -i 24 -a 1 -x {0.0 3.0 24 ------- null}
+ -t 0.728285714285714 -s 2 -d 3 -p cbr -e 500 -c 1 -i 24 -a 1 -x {0.0 3.0 24 ------- null}
- -t 0.728285714285714 -s 2 -d 3 -p cbr -e 500 -c 1 -i 24 -a 1 -x {0.0 3.0 24 ------- null}
h -t 0.728285714285714 -s 2 -d 3 -p cbr -e 500 -c 1 -i 24 -a 1 -x {0.0 3.0 -1 ------- null}
+ -t 0.732142857142856 -s 0 -d 2 -p cbr -e 500 -c 1 -i 26 -a 1 -x {0.0 3.0 26 ------- null}
- -t 0.732142857142856 -s 0 -d 2 -p cbr -e 500 -c 1 -i 26 -a 1 -x {0.0 3.0 26 ------- null}
h -t 0.732142857142856 -s 0 -d 2 -p cbr -e 500 -c 1 -i 26 -a 1 -x {0.0 3.0 -1 ------- null}
r -t 0.733357142857142 -s 2 -d 3 -p cbr -e 500 -c 1 -i 23 -a 1 -x {0.0 3.0 23 ------- null}
r -t 0.737214285714285 -s 0 -d 2 -p cbr -e 500 -c 1 -i 25 -a 1 -x {0.0 3.0 25 ------- null}
+ -t 0.737214285714285 -s 2 -d 3 -p cbr -e 500 -c 1 -i 25 -a 1 -x {0.0 3.0 25 ------- null}
- -t 0.737214285714285 -s 2 -d 3 -p cbr -e 500 -c 1 -i 25 -a 1 -x {0.0 3.0 25 ------- null}
h -t 0.737214285714285 -s 2 -d 3 -p cbr -e 500 -c 1 -i 25 -a 1 -x {0.0 3.0 -1 ------- null}
+ -t 0.741071428571428 -s 0 -d 2 -p cbr -e 500 -c 1 -i 27 -a 1 -x {0.0 3.0 27 ------- null}
- -t 0.741071428571428 -s 0 -d 2 -p cbr -e 500 -c 1 -i 27 -a 1 -x {0.0 3.0 27 ------- null}
h -t 0.741071428571428 -s 0 -d 2 -p cbr -e 500 -c 1 -i 27 -a 1 -x {0.0 3.0 -1 ------- null}
r -t 0.742285714285714 -s 2 -d 3 -p cbr -e 500 -c 1 -i 24 -a 1 -x {0.0 3.0 24 ------- null}
r -t 0.746142857142856 -s 0 -d 2 -p cbr -e 500 -c 1 -i 26 -a 1 -x {0.0 3.0 26 ------- null}
+ -t 0.746142857142856 -s 2 -d 3 -p cbr -e 500 -c 1 -i 26 -a 1 -x {0.0 3.0 26 ------- null}
- -t 0.746142857142856 -s 2 -d 3 -p cbr -e 500 -c 1 -i 26 -a 1 -x {0.0 3.0 26 ------- null}
h -t 0.746142857142856 -s 2 -d 3 -p cbr -e 500 -c 1 -i 26 -a 1 -x {0.0 3.0 -1 ------- null}
+ -t 0.749999999999999 -s 0 -d 2 -p cbr -e 500 -c 1 -i 28 -a 1 -x {0.0 3.0 28 ------- null}
- -t 0.749999999999999 -s 0 -d 2 -p cbr -e 500 -c 1 -i 28 -a 1 -x {0.0 3.0 28 ------- null}
h -t 0.749999999999999 -s 0 -d 2 -p cbr -e 500 -c 1 -i 28 -a 1 -x {0.0 3.0 -1 ------- null}
r -t 0.751214285714285 -s 2 -d 3 -p cbr -e 500 -c 1 -i 25 -a 1 -x {0.0 3.0 25 ------- null}
r -t 0.755071428571428 -s 0 -d 2 -p cbr -e 500 -c 1 -i 27 -a 1 -x {0.0 3.0 27 ------- null}
+ -t 0.755071428571428 -s 2 -d 3 -p cbr -e 500 -c 1 -i 27 -a 1 -x {0.0 3.0 27 ------- null}
- -t 0.755071428571428 -s 2 -d 3 -p cbr -e 500 -c 1 -i 27 -a 1 -x {0.0 3.0 27 ------- null}
h -t 0.755071428571428 -s 2 -d 3 -p cbr -e 500 -c 1 -i 27 -a 1 -x {0.0 3.0 -1 ------- null}
+ -t 0.758928571428571 -s 0 -d 2 -p cbr -e 500 -c 1 -i 29 -a 1 -x {0.0 3.0 29 ------- null}
- -t 0.758928571428571 -s 0 -d 2 -p cbr -e 500 -c 1 -i 29 -a 1 -x {0.0 3.0 29 ------- null}
h -t 0.758928571428571 -s 0 -d 2 -p cbr -e 500 -c 1 -i 29 -a 1 -x {0.0 3.0 -1 ------- null}
r -t 0.760142857142856 -s 2 -d 3 -p cbr -e 500 -c 1 -i 26 -a 1 -x {0.0 3.0 26 ------- null}
r -t 0.763999999999999 -s 0 -d 2 -p cbr -e 500 -c 1 -i 28 -a 1 -x {0.0 3.0 28 ------- null}
+ -t 0.763999999999999 -s 2 -d 3 -p cbr -e 500 -c 1 -i 28 -a 1 -x {0.0 3.0 28 ------- null}
- -t 0.763999999999999 -s 2 -d 3 -p cbr -e 500 -c 1 -i 28 -a 1 -x {0.0 3.0 28 ------- null}
h -t 0.763999999999999 -s 2 -d 3 -p cbr -e 500 -c 1 -i 28 -a 1 -x {0.0 3.0 -1 ------- null}
+ -t 0.767857142857142 -s 0 -d 2 -p cbr -e 500 -c 1 -i 30 -a 1 -x {0.0 3.0 30 ------- null}
- -t 0.767857142857142 -s 0 -d 2 -p cbr -e 500 -c 1 -i 30 -a 1 -x {0.0 3.0 30 ------- null}
h -t 0.767857142857142 -s 0 -d 2 -p cbr -e 500 -c 1 -i 30 -a 1 -x {0.0 3.0 -1 ------- null}
r -t 0.769071428571428 -s 2 -d 3 -p cbr -e 500 -c 1 -i 27 -a 1 -x {0.0 3.0 27 ------- null}
r -t 0.772928571428571 -s 0 -d 2 -p cbr -e 500 -c 1 -i 29 -a 1 -x {0.0 3.0 29 ------- null}
+ -t 0.772928571428571 -s 2 -d 3 -p cbr -e 500 -c 1 -i 29 -a 1 -x {0.0 3.0 29 ------- null}
- -t 0.772928571428571 -s 2 -d 3 -p cbr -e 500 -c 1 -i 29 -a 1 -x {0.0 3.0 29 ------- null}
h -t 0.772928571428571 -s 2 -d 3 -p cbr -e 500 -c 1 -i 29 -a 1 -x {0.0 3.0 -1 ------- null}
+ -t 0.776785714285713 -s 0 -d 2 -p cbr -e 500 -c 1 -i 31 -a 1 -x {0.0 3.0 31 ------- null}
- -t 0.776785714285713 -s 0 -d 2 -p cbr -e 500 -c 1 -i 31 -a 1 -x {0.0 3.0 31 ------- null}
h -t 0.776785714285713 -s 0 -d 2 -p cbr -e 500 -c 1 -i 31 -a 1 -x {0.0 3.0 -1 ------- null}
r -t 0.777999999999999 -s 2 -d 3 -p cbr -e 500 -c 1 -i 28 -a 1 -x {0.0 3.0 28 ------- null}
r -t 0.781857142857142 -s 0 -d 2 -p cbr -e 500 -c 1 -i 30 -a 1 -x {0.0 3.0 30 ------- null}
+ -t 0.781857142857142 -s 2 -d 3 -p cbr -e 500 -c 1 -i 30 -a 1 -x {0.0 3.0 30 ------- null}
- -t 0.781857142857142 -s 2 -d 3 -p cbr -e 500 -c 1 -i 30 -a 1 -x {0.0 3.0 30 ------- null}
h -t 0.781857142857142 -s 2 -d 3 -p cbr -e 500 -c 1 -i 30 -a 1 -x {0.0 3.0 -1 ------- null}
+ -t 0.785714285714285 -s 0 -d 2 -p cbr -e 500 -c 1 -i 32 -a 1 -x {0.0 3.0 32 ------- null}
- -t 0.785714285714285 -s 0 -d 2 -p cbr -e 500 -c 1 -i 32 -a 1 -x {0.0 3.0 32 ------- null}
h -t 0.785714285714285 -s 0 -d 2 -p cbr -e 500 -c 1 -i 32 -a 1 -x {0.0 3.0 -1 ------- null}
r -t 0.786928571428571 -s 2 -d 3 -p cbr -e 500 -c 1 -i 29 -a 1 -x {0.0 3.0 29 ------- null}
r -t 0.790785714285713 -s 0 -d 2 -p cbr -e 500 -c 1 -i 31 -a 1 -x {0.0 3.0 31 ------- null}
+ -t 0.790785714285713 -s 2 -d 3 -p cbr -e 500 -c 1 -i 31 -a 1 -x {0.0 3.0 31 ------- null}
- -t 0.790785714285713 -s 2 -d 3 -p cbr -e 500 -c 1 -i 31 -a 1 -x {0.0 3.0 31 ------- null}
h -t 0.790785714285713 -s 2 -d 3 -p cbr -e 500 -c 1 -i 31 -a 1 -x {0.0 3.0 -1 ------- null}
+ -t 0.794642857142856 -s 0 -d 2 -p cbr -e 500 -c 1 -i 33 -a 1 -x {0.0 3.0 33 ------- null}
- -t 0.794642857142856 -s 0 -d 2 -p cbr -e 500 -c 1 -i 33 -a 1 -x {0.0 3.0 33 ------- null}
h -t 0.794642857142856 -s 0 -d 2 -p cbr -e 500 -c 1 -i 33 -a 1 -x {0.0 3.0 -1 ------- null}
r -t 0.795857142857142 -s 2 -d 3 -p cbr -e 500 -c 1 -i 30 -a 1 -x {0.0 3.0 30 ------- null}
r -t 0.799714285714285 -s 0 -d 2 -p cbr -e 500 -c 1 -i 32 -a 1 -x {0.0 3.0 32 ------- null}
+ -t 0.799714285714285 -s 2 -d 3 -p cbr -e 500 -c 1 -i 32 -a 1 -x {0.0 3.0 32 ------- null}
- -t 0.799714285714285 -s 2 -d 3 -p cbr -e 500 -c 1 -i 32 -a 1 -x {0.0 3.0 32 ------- null}
h -t 0.799714285714285 -s 2 -d 3 -p cbr -e 500 -c 1 -i 32 -a 1 -x {0.0 3.0 -1 ------- null}
+ -t 0.803571428571427 -s 0 -d 2 -p cbr -e 500 -c 1 -i 34 -a 1 -x {0.0 3.0 34 ------- null}
- -t 0.803571428571427 -s 0 -d 2 -p cbr -e 500 -c 1 -i 34 -a 1 -x {0.0 3.0 34 ------- null}
h -t 0.803571428571427 -s 0 -d 2 -p cbr -e 500 -c 1 -i 34 -a 1 -x {0.0 3.0 -1 ------- null}
r -t 0.804785714285713 -s 2 -d 3 -p cbr -e 500 -c 1 -i 31 -a 1 -x {0.0 3.0 31 ------- null}
r -t 0.808642857142856 -s 0 -d 2 -p cbr -e 500 -c 1 -i 33 -a 1 -x {0.0 3.0 33 ------- null}
+ -t 0.808642857142856 -s 2 -d 3 -p cbr -e 500 -c 1 -i 33 -a 1 -x {0.0 3.0 33 ------- null}
- -t 0.808642857142856 -s 2 -d 3 -p cbr -e 500 -c 1 -i 33 -a 1 -x {0.0 3.0 33 ------- null}
h -t 0.808642857142856 -s 2 -d 3 -p cbr -e 500 -c 1 -i 33 -a 1 -x {0.0 3.0 -1 ------- null}
+ -t 0.812499999999999 -s 0 -d 2 -p cbr -e 500 -c 1 -i 35 -a 1 -x {0.0 3.0 35 ------- null}
- -t 0.812499999999999 -s 0 -d 2 -p cbr -e 500 -c 1 -i 35 -a 1 -x {0.0 3.0 35 ------- null}
h -t 0.812499999999999 -s 0 -d 2 -p cbr -e 500 -c 1 -i 35 -a 1 -x {0.0 3.0 -1 ------- null}
r -t 0.813714285714285 -s 2 -d 3 -p cbr -e 500 -c 1 -i 32 -a 1 -x {0.0 3.0 32 ------- null}
r -t 0.817571428571428 -s 0 -d 2 -p cbr -e 500 -c 1 -i 34 -a 1 -x {0.0 3.0 34 ------- null}
+ -t 0.817571428571428 -s 2 -d 3 -p cbr -e 500 -c 1 -i 34 -a 1 -x {0.0 3.0 34 ------- null}
- -t 0.817571428571428 -s 2 -d 3 -p cbr -e 500 -c 1 -i 34 -a 1 -x {0.0 3.0 34 ------- null}
h -t 0.817571428571428 -s 2 -d 3 -p cbr -e 500 -c 1 -i 34 -a 1 -x {0.0 3.0 -1 ------- null}
+ -t 0.82142857142857 -s 0 -d 2 -p cbr -e 500 -c 1 -i 36 -a 1 -x {0.0 3.0 36 ------- null}
- -t 0.82142857142857 -s 0 -d 2 -p cbr -e 500 -c 1 -i 36 -a 1 -x {0.0 3.0 36 ------- null}
h -t 0.82142857142857 -s 0 -d 2 -p cbr -e 500 -c 1 -i 36 -a 1 -x {0.0 3.0 -1 ------- null}
r -t 0.822642857142856 -s 2 -d 3 -p cbr -e 500 -c 1 -i 33 -a 1 -x {0.0 3.0 33 ------- null}
r -t 0.826499999999999 -s 0 -d 2 -p cbr -e 500 -c 1 -i 35 -a 1 -x {0.0 3.0 35 ------- null}
+ -t 0.826499999999999 -s 2 -d 3 -p cbr -e 500 -c 1 -i 35 -a 1 -x {0.0 3.0 35 ------- null}
- -t 0.826499999999999 -s 2 -d 3 -p cbr -e 500 -c 1 -i 35 -a 1 -x {0.0 3.0 35 ------- null}
h -t 0.826499999999999 -s 2 -d 3 -p cbr -e 500 -c 1 -i 35 -a 1 -x {0.0 3.0 -1 ------- null}
+ -t 0.830357142857142 -s 0 -d 2 -p cbr -e 500 -c 1 -i 37 -a 1 -x {0.0 3.0 37 ------- null}
- -t 0.830357142857142 -s 0 -d 2 -p cbr -e 500 -c 1 -i 37 -a 1 -x {0.0 3.0 37 ------- null}
h -t 0.830357142857142 -s 0 -d 2 -p cbr -e 500 -c 1 -i 37 -a 1 -x {0.0 3.0 -1 ------- null}
r -t 0.831571428571428 -s 2 -d 3 -p cbr -e 500 -c 1 -i 34 -a 1 -x {0.0 3.0 34 ------- null}
r -t 0.83542857142857 -s 0 -d 2 -p cbr -e 500 -c 1 -i 36 -a 1 -x {0.0 3.0 36 ------- null}
+ -t 0.83542857142857 -s 2 -d 3 -p cbr -e 500 -c 1 -i 36 -a 1 -x {0.0 3.0 36 ------- null}
- -t 0.83542857142857 -s 2 -d 3 -p cbr -e 500 -c 1 -i 36 -a 1 -x {0.0 3.0 36 ------- null}
h -t 0.83542857142857 -s 2 -d 3 -p cbr -e 500 -c 1 -i 36 -a 1 -x {0.0 3.0 -1 ------- null}
+ -t 0.839285714285713 -s 0 -d 2 -p cbr -e 500 -c 1 -i 38 -a 1 -x {0.0 3.0 38 ------- null}
- -t 0.839285714285713 -s 0 -d 2 -p cbr -e 500 -c 1 -i 38 -a 1 -x {0.0 3.0 38 ------- null}
h -t 0.839285714285713 -s 0 -d 2 -p cbr -e 500 -c 1 -i 38 -a 1 -x {0.0 3.0 -1 ------- null}
r -t 0.840499999999999 -s 2 -d 3 -p cbr -e 500 -c 1 -i 35 -a 1 -x {0.0 3.0 35 ------- null}
r -t 0.844357142857142 -s 0 -d 2 -p cbr -e 500 -c 1 -i 37 -a 1 -x {0.0 3.0 37 ------- null}
+ -t 0.844357142857142 -s 2 -d 3 -p cbr -e 500 -c 1 -i 37 -a 1 -x {0.0 3.0 37 ------- null}
- -t 0.844357142857142 -s 2 -d 3 -p cbr -e 500 -c 1 -i 37 -a 1 -x {0.0 3.0 37 ------- null}
h -t 0.844357142857142 -s 2 -d 3 -p cbr -e 500 -c 1 -i 37 -a 1 -x {0.0 3.0 -1 ------- null}
+ -t 0.848214285714284 -s 0 -d 2 -p cbr -e 500 -c 1 -i 39 -a 1 -x {0.0 3.0 39 ------- null}
- -t 0.848214285714284 -s 0 -d 2 -p cbr -e 500 -c 1 -i 39 -a 1 -x {0.0 3.0 39 ------- null}
h -t 0.848214285714284 -s 0 -d 2 -p cbr -e 500 -c 1 -i 39 -a 1 -x {0.0 3.0 -1 ------- null}
r -t 0.84942857142857 -s 2 -d 3 -p cbr -e 500 -c 1 -i 36 -a 1 -x {0.0 3.0 36 ------- null}
r -t 0.853285714285713 -s 0 -d 2 -p cbr -e 500 -c 1 -i 38 -a 1 -x {0.0 3.0 38 ------- null}
+ -t 0.853285714285713 -s 2 -d 3 -p cbr -e 500 -c 1 -i 38 -a 1 -x {0.0 3.0 38 ------- null}
- -t 0.853285714285713 -s 2 -d 3 -p cbr -e 500 -c 1 -i 38 -a 1 -x {0.0 3.0 38 ------- null}
h -t 0.853285714285713 -s 2 -d 3 -p cbr -e 500 -c 1 -i 38 -a 1 -x {0.0 3.0 -1 ------- null}
+ -t 0.857142857142856 -s 0 -d 2 -p cbr -e 500 -c 1 -i 40 -a 1 -x {0.0 3.0 40 ------- null}
- -t 0.857142857142856 -s 0 -d 2 -p cbr -e 500 -c 1 -i 40 -a 1 -x {0.0 3.0 40 ------- null}
h -t 0.857142857142856 -s 0 -d 2 -p cbr -e 500 -c 1 -i 40 -a 1 -x {0.0 3.0 -1 ------- null}
r -t 0.858357142857142 -s 2 -d 3 -p cbr -e 500 -c 1 -i 37 -a 1 -x {0.0 3.0 37 ------- null}
r -t 0.862214285714284 -s 0 -d 2 -p cbr -e 500 -c 1 -i 39 -a 1 -x {0.0 3.0 39 ------- null}
+ -t 0.862214285714284 -s 2 -d 3 -p cbr -e 500 -c 1 -i 39 -a 1 -x {0.0 3.0 39 ------- null}
- -t 0.862214285714284 -s 2 -d 3 -p cbr -e 500 -c 1 -i 39 -a 1 -x {0.0 3.0 39 ------- null}
h -t 0.862214285714284 -s 2 -d 3 -p cbr -e 500 -c 1 -i 39 -a 1 -x {0.0 3.0 -1 ------- null}
+ -t 0.866071428571427 -s 0 -d 2 -p cbr -e 500 -c 1 -i 41 -a 1 -x {0.0 3.0 41 ------- null}
- -t 0.866071428571427 -s 0 -d 2 -p cbr -e 500 -c 1 -i 41 -a 1 -x {0.0 3.0 41 ------- null}
h -t 0.866071428571427 -s 0 -d 2 -p cbr -e 500 -c 1 -i 41 -a 1 -x {0.0 3.0 -1 ------- null}